#BIOSYM hessian 1
@Type: Hessian Update
@Units
 distance: 	A
 energy: 	Kcal/Mol
#header
@natom 66

#label
C1      C2      C3      C4      C5      C6      C7      C8      C9      C10     C11     C12     C13     C14     C15     C16     C17     C18     C19     C20     C21     C22     C23     C24     C25     C26     C27     C28     C29     C30     C31     C32     C33     C34     C35     C36     C37     C38     C39     C40     C41     C42     C43     H44     C45     C46     H47     H48     H49     C50     C51     C52     H53     H54     H55     H56     H57     H58     H59     H60     H61     H62     H63     H64     H65     H66

#element
C  C  C  C  C  C  C  C  C  C  C  C  C  C  C  C  C  C  C  C  C  C  C  C  C  C  C  C  C  C  C  C  C  C  C  C  C  C  C  C  C  C  C  H  C  C  H  H  H  C  C  C  H  H  H  H  H  H  H  H  H  H  H  H  H  H 

#matrix
198
 2.788247080925E+03
 -4.092172041413E+00 2.846842798901E+03
 -3.706604132704E+00 -1.040307431974E+01 2.137404616466E+02
 -6.895685653320E-01 1.459202238778E-01 1.302384986542E-01 2.617103663319E+03
 4.579864680299E-01 -2.303445427113E+00 -1.563631376109E-01 1.025602105648E+02 2.877560814594E+03
 -3.036194580751E-02 -3.794007059508E-01 -6.870519987038E-01 -1.567207836247E+00 -9.916685696621E+00 1.914013035114E+02
 -1.825676891404E+01 3.282800131123E+01 -2.196685911411E-01 1.098665467878E+00 -8.012135547531E+00 3.951741929901E-01 2.823857126852E+03
 -3.453258998107E+01 6.097104622755E+01 -2.391971438627E-02 -2.229340869253E+00 8.002032524565E+00 -3.350231236592E-01 1.158207454991E+01 2.732927260482E+03
 1.013926596940E-01 -2.854002569722E-01 8.747123218214E+00 1.698559445136E-01 1.469067553365E-01 -3.659256003486E-01 -3.877158218511E+00 -1.049323681901E+01 1.907184711372E+02
 3.356738808693E+01 -6.538951425161E+01 5.493508419486E-01 -6.135207377300E-01 1.107171952610E+01 -2.065086316431E-01 4.577967861401E+01 6.230852386175E+01 -6.007165221531E-01 2.607244674650E+03
 -1.286873356534E+00 -9.485321929029E-01 -1.062625822045E-01 8.645788747631E-01 -6.408713008190E+00 -1.793104436571E-02 -1.160985943947E+00 -4.560924980042E-01 5.287639756897E-01 1.122765265316E+02 2.647950272675E+03
 -2.049661913048E-01 -9.138643820462E-01 6.075494367728E+00 -1.087315783694E+00 1.206297004373E+00 5.613650612371E+00 1.181147776122E+00 -6.723599894130E-01 1.018209156784E+01 -5.935197708207E+00 -1.031368769878E+01 1.719722450771E+02
 -5.923433011359E-01 -1.811658131990E+00 -3.183851658641E-01 -1.058019930600E+00 -1.312986889658E+00 4.534028816930E-01 4.827075055017E+01 -8.092125413609E+01 5.513508702242E-01 -2.155898858398E+01 3.920295991774E+01 2.321024351571E+00 2.323592037777E+03
 -1.534370466578E+00 -9.737588893639E+00 4.796737434242E-01 1.952936055410E+00 7.598032905479E+00 -2.593355658286E-01 9.173911707720E+00 -1.235963108743E+01 -8.642142278474E-01 -4.631167067994E+01 6.915162961046E+01 -3.604981594257E+00 -2.637867278735E+02 2.844553639900E+03
 8.384276467009E-02 6.852333777241E-01 1.907851018315E+00 9.568259177206E-01 -9.919087605185E-01 -6.211287307482E+00 1.255462580597E-01 8.772842931417E-01 1.122136708881E+01 8.769800202929E-01 -7.258949665441E-01 2.694155815068E-01 -3.332142368020E+00 -9.324650332964E+00 1.867528609696E+02
 -1.252594567046E+03 3.657536842188E+02 5.413255214724E-01 6.830877472996E+00 -3.674187546298E+01 -7.955910867398E-01 -1.898623062658E+01 1.508557519077E+01 1.403449347141E-02 1.606519627988E+01 -1.031079983973E+01 -5.672478586532E-01 6.093609236439E-01 4.176216964217E+01 9.862723317756E-01 3.037229869181E+03
 4.189471500828E+02 -7.642831123043E+02 2.702461309936E+00 1.037631432590E+01 -3.883525361710E+01 -2.250820600062E+00 -2.328041686448E+01 1.726141360428E+01 2.368330610169E-01 3.192006284802E+01 9.614526134842E+00 -3.546264860771E+00 9.779466954107E+00 9.274190704573E+01 3.101067101746E+00 -6.399801478407E+01 4.083812543876E+03
 3.387652617337E-01 2.595062262771E+00 -9.797733794461E+01 1.912354845072E-02 -5.640215607618E-02 -3.800583310924E-01 -2.174131802405E-03 -4.411291018595E-02 4.661075412947E+00 -1.558433094339E-01 -3.929157013450E-01 -9.189477585061E+00 -2.008378003393E-01 -5.429873050128E-01 1.570733000602E-01 -3.656510711701E+00 -1.690707054526E+01 2.611219386412E+02
 -1.198529760631E+03 -4.126941539090E+02 3.217041092849E+00 -9.062062962348E-01 4.714140658520E+00 -2.763978985088E-04 -1.237307973876E+03 4.401252583606E+02 -1.282634745910E-01 -4.504273380470E+02 -1.749782657919E+00 5.001988632310E-01 -3.342051406519E+00 -8.681407747572E+00 2.906609363580E-01 -5.312377005101E+00 -1.396409078531E+01 3.678465421002E-02 2.777382116046E+03
 -4.111435701100E+02 -6.999671287670E+02 3.146125097836E+00 6.583932376322E-01 1.129738504367E-01 2.085680920642E-01 4.488105061253E+02 -7.352515827792E+02 1.634804121478E+00 -1.460253355484E+01 -1.459469163219E+03 5.778637401465E+00 3.279272875959E-01 5.995946912777E+00 -5.977001984883E-01 4.363239204760E+01 5.992873184238E+01 -1.213160820841E-01 -1.818305988015E+01 2.772384505451E+03
 3.247841653746E+00 3.543243558938E+00 -8.521956983576E+01 3.733657659127E-01 -4.075379966642E-01 -2.060338245136E+00 -3.063816642637E-01 2.123790369040E+00 -8.279514509865E+01 1.438760119264E+00 5.989279701008E+00 -7.964650565220E+01 -7.855066211280E-01 1.071117679859E+00 -6.295216327601E+00 2.820830731708E-01 1.696832401353E+00 1.516634929627E+01 -4.005096877776E+00 -1.086539554575E+01 1.902244987676E+02
 7.476757862998E-01 1.667552716389E+01 -8.957965071004E-01 -1.193574075312E+03 -4.316910641187E+02 3.624267823082E+00 9.137515156036E-01 -6.223265889566E+00 -3.906450395708E-02 1.526228927286E+00 9.650792568904E+00 5.647809165179E+00 9.860895812909E+00 3.185224367504E+01 -3.987021788999E+00 -1.651331460425E+00 -4.930478492043E+01 1.145647445366E-01 -2.426968148774E+00 -1.608828336339E+00 -1.979848759085E+00 3.167397552099E+03
 -2.015311180581E+00 -9.028538305775E+00 9.269804673624E-02 -3.876108282495E+02 -7.910285888320E+02 3.732852975463E+00 1.229985982566E+01 -9.576368067203E+00 6.387065994470E-02 -2.052582222951E+01 1.283443494819E+00 -8.299509711179E-01 -5.491572365281E+00 -4.582857689843E+01 1.765899509332E-01 6.950549369482E+01 1.370651221020E+02 -7.865897416893E-01 -5.131663721175E+00 8.644354180837E-01 2.094301428036E-01 -7.297979210603E+01 3.030408365144E+03
 -5.243037075925E-02 2.014765404468E-01 9.424474299271E-02 1.805939839747E+00 2.303725713069E+00 -8.656664264892E+01 -1.971466159669E-01 2.979322009264E-01 -9.958247857710E-01 4.852810430497E-01 -4.676647926081E-02 -2.034135918437E-01 -7.446724650102E-01 5.636319908659E-01 3.986381042573E+00 -3.003230415282E-01 -3.750733251814E-01 -1.762263617723E-01 3.536981868232E-02 5.231954842564E-02 -1.346564795001E-01 -2.071666869988E+00 -1.085445414738E+01 1.903484937118E+02
 -6.205700717261E-01 -1.602181991450E+00 1.340185994691E-02 -9.241393760231E-01 3.920151907305E+00 -4.015264310851E-01 -1.253645614709E+03 -4.326300986228E+02 3.049377920101E+00 -8.098316630541E+00 1.137614734185E+00 -6.047090587093E-01 -4.754802123473E+02 -5.137848869335E+01 -5.603319861455E-01 1.559534307016E+01 3.105195463776E+01 -1.333196756485E-01 -2.017453913339E+01 -3.755849026516E+01 2.574304927545E-01 1.013176943659E+01 -1.542593635640E+01 2.502035196333E-01 2.625994100208E+03
 2.676531145435E+00 2.726173021759E+00 -4.046889909940E-01 3.468290449032E+00 -1.111903412439E+01 3.644123629143E-01 -4.674314522845E+02 -7.332536241748E+02 5.058559944766E+00 1.258529108852E+01 4.081882687680E+00 3.274416994287E+00 8.291777326356E+00 -1.783383450825E+03 6.033273582477E+00 -4.341566782406E+01 -7.865178315746E+01 2.374668687500E-01 3.687884318286E+01 6.226856216102E+01 -1.231920024855E+00 -2.982457832039E+01 4.898984674600E+01 -6.369224411652E-01 1.341186181885E+02 3.034346860423E+03
 -2.479378853784E-01 -1.476873438576E+00 2.868773236676E+00 -1.794260413865E-01 6.141528736922E-01 1.287178497859E+01 2.083079324290E+00 2.717047912990E+00 -8.526326872014E+01 7.678751813587E-01 -5.022367496948E-01 4.843689960440E+00 5.233073925853E-01 8.767665254003E+00 -9.342761036855E+01 -2.192633365856E+00 -5.225699845466E+00 -1.261180314879E+00 -2.043920507173E-01 1.853308549387E+00 5.784663319249E+00 3.696517124191E+00 1.187382215193E+00 3.103020795029E+00 -3.281517922702E+00 -1.264294744002E+01 2.093451121500E+02
 1.389404048053E+00 1.880121619539E-01 -8.554302339514E-02 7.875122112011E-01 -4.300190931373E+00 -8.501485259022E-02 -6.334710087594E+00 2.255453631393E+00 4.639882572516E-01 -1.234533604676E+03 -4.474633771947E+02 4.612060748414E+00 -1.291153242696E+03 4.896097911963E+02 -5.471290617881E-01 -1.296082573540E+01 -2.016211937189E+01 1.816585337542E-01 4.094698377209E+01 1.202480261185E+00 -2.978524145298E-01 -2.157469071535E+00 1.097817291739E+01 -2.485494151322E-01 5.239064784677E+01 -9.743578989821E+00 -1.426479116221E+00 2.735368585457E+03
 1.124281436192E+00 1.974869047423E+00 -1.597090651526E-01 -6.771974699033E-01 -2.062931113327E+00 2.033918190829E-01 -2.799049513929E+00 6.793712453086E+00 -8.259125590655E-02 -4.305062389824E+02 -7.022862392795E+02 4.798214983228E+00 4.346122311026E+02 -6.983211172238E+02 2.032977303924E+00 -8.333478656800E+00 -1.844846987271E+01 6.692311087038E-03 -6.579801311389E+01 -2.072405074918E+00 -3.361628033226E-01 -4.633810708930E+00 8.836170434496E+00 -3.211101321406E-01 8.523856871041E+01 -1.157131564468E+01 -3.398028983382E-01 -2.699705302780E+01 2.228754217820E+03
 1.544042665413E-01 -1.279492321556E-01 4.640365642530E+00 -6.623618796565E-02 2.107126114283E-01 -3.968875217261E-01 -1.981283586622E-01 -7.416737174024E-02 -1.073111428971E+01 3.398690686050E+00 3.137098912706E+00 -7.088508490521E+01 2.545702466919E-01 2.230809924146E+00 -6.641166876767E+01 2.371478964027E-01 -1.461044343653E-01 -3.779933383988E-02 2.220952360320E-01 2.929484278804E-01 1.012243506138E+01 5.499579869141E-01 -3.393962097483E-01 1.358807626954E-01 -4.658561370066E-02 -1.062503996337E-01 1.153961560150E+01 -3.659278317823E+00 -8.829414234595E+00 1.322468620052E+02
 -1.576408759968E+00 -1.179946864601E+01 -3.040717407302E-02 -5.694088842995E+00 8.345081778906E+00 6.942068961967E-01 1.104601575522E+01 -7.162728091375E+00 4.627868779521E-05 -2.098543441076E+01 -1.795914634574E-01 1.051034536260E-01 -5.147628389310E+00 -4.843185156024E+01 -5.375006995247E-01 6.513426007417E+01 1.424670208336E+02 -9.447237782908E-01 -4.066850950330E+00 5.396140072162E-01 -1.322160675415E-01 3.175105169170E+01 -6.401800750010E+01 4.705946271899E-01 -1.517923188111E+01 5.142243841393E+01 1.504601439008E+00 1.103400826235E+01 9.644960666110E+00 -2.427903540377E-01 3.015665104291E+03
 -1.988371763073E+00 1.080224834549E+01 -8.421293382928E-01 -8.970925865736E+00 5.932535876003E+01 2.334420641570E+00 2.013259112448E+01 -2.498097689706E+01 -2.154399541285E-01 -2.942535483857E+01 1.631094468675E+01 4.895217537072E+00 4.835512286016E+00 -2.166392093721E+01 -3.187524882315E+00 1.043293224379E+02 1.346449917760E+02 -8.156252777901E-01 -1.199567182011E+01 -5.550408808202E-01 -1.889664419932E+00 -4.304685701452E+01 -6.100951429764E+01 -3.294672505666E-01 -7.707427871342E+00 3.270904176503E+01 6.884429280671E+00 1.296258615235E+01 6.722131253805E+00 1.363249195038E-01 -1.139732648005E+02 2.875891592011E+03
 -2.326635267826E-02 6.584683341286E-02 5.220647934137E-02 1.567437654396E-01 -2.690393795569E-01 -1.554047372513E-01 -1.803946586339E-01 1.751558009080E-01 -1.668718280185E-02 2.861925876132E-01 1.376114949845E-02 -3.862617242944E-01 -5.902576167019E-02 7.868295516393E-01 4.463497565751E-01 -9.462019375762E-01 -1.386216335338E+00 4.827255351115E+00 1.054808007866E-01 -3.978459095970E-03 1.219248097267E-01 -3.280933224233E-01 9.141481967607E-01 4.939162910072E-02 2.374238609216E-01 -6.276159543757E-01 -3.695852999352E-01 -2.431076895406E-01 -1.838977127590E-01 8.128020988686E-03 -1.836870602324E+00 -1.156085423949E+01 1.753476211592E+02
 4.631107633977E-01 4.241668835155E-01 7.381232562554E-01 2.281259730708E+00 -5.392694774785E+00 -3.173179585277E-01 -4.296964089993E+00 2.744445664098E+00 -8.864131566775E-01 -1.052911466034E+03 2.730928680418E+02 -4.471668682413E+00 -7.761186724897E+00 1.845891342896E+00 4.715205098171E+00 3.540021208510E+01 -2.722316895059E+01 2.020488769739E-01 3.624218924744E+01 3.311849883496E+00 1.156713603841E+00 -9.268211349866E+00 1.198447059304E+01 2.021757631820E+00 -2.071672146960E-01 -1.000014211999E+01 7.645872793748E-01 -2.210938781581E+01 2.516933440410E+01 -6.365611283600E-01 8.335065970535E+00 4.895862761046E+00 2.055243692259E-01 2.158484876476E+03
 -3.865856570573E+00 2.433460408800E+01 -2.782191212892E-01 4.348155912707E+00 1.214852218988E+01 5.884176687131E-01 -4.609941885339E+00 9.750473360528E-01 -5.046967050141E-01 3.734524519584E+02 -5.810901256342E+02 2.651031727530E+00 3.416306041842E+00 4.227357650002E+01 6.014603276288E-01 -1.087026491642E+02 -1.032916128772E+02 7.963334351795E-01 5.589127151356E+01 -7.261200136611E+00 -4.516515779644E-01 -5.289052860914E+01 4.757811878836E+01 3.349254528129E-01 1.198023771313E+01 -4.876091985147E+01 2.676949480266E+00 -3.915503733284E+01 4.445454579037E+01 -8.264823941386E-02 5.263461292986E+01 -1.312578913280E+01 -4.532801847041E-01 -1.455933672783E+02 2.765260856470E+03
 9.241656360132E-02 3.160368097334E-01 -7.510579352137E+00 8.591616765630E-01 -8.740201986625E-01 -4.473447592533E+00 -7.999347297028E-01 2.837965685139E-01 4.696704745265E+00 3.337514179376E-01 1.351736120406E+00 -7.095196522319E+01 -1.776621248896E+00 2.504950687748E+00 1.122309068352E+01 1.630442536966E-01 2.703389788917E+00 7.204725073947E+00 2.489200603492E-01 2.948166708549E-01 4.596109044561E+00 -4.003334264296E+00 6.804606167521E-01 -8.081808362748E-01 5.318987719539E-01 -2.201474545716E+00 -1.292727749487E+01 -3.809892539483E-01 -1.316452422270E+00 1.442433448200E+01 -2.327895976687E-05 -3.491094188404E+00 2.749202780936E-01 1.603680068582E+00 -1.242898513527E+01 1.465503244086E+02
 -2.183824580546E+01 -3.258583179408E+01 2.911290030913E-01 -5.103155754996E+00 2.974918282931E+01 -1.514074827676E-02 1.198344063107E+01 -1.260871187472E+01 -1.098288076799E-01 -1.472524744179E+01 6.214396800053E+00 -1.193173876374E+00 3.605394647156E-02 -2.451957791742E+01 8.809866347514E-01 -1.226125246803E+03 -3.338531467116E+02 2.583325418847E+00 -6.011980203661E+00 3.732752234631E-01 3.641250531427E-01 -1.138033909221E+01 -4.159363290270E+01 4.032003900620E-01 -9.131707307714E+00 2.520766361495E+01 3.514265626574E-01 7.590456097716E+00 5.012137715118E+00 -3.274141149466E-01 -5.415446993209E+01 -4.948508886178E+01 6.655296500173E-01 1.061097314227E+01 1.212852918095E+01 8.814192168122E-01 2.800266207778E+03
 3.213169807052E+01 6.242822732626E+01 -4.379761897807E-02 -3.803694239997E+00 2.186545263361E+01 -1.422214535936E-01 7.981747412390E+00 -9.153125244561E+00 -1.676516680061E-01 -1.111725096733E+01 4.753083779777E+00 -1.476519285330E+00 -7.810787850902E-01 -1.830596304528E+01 1.250094409487E+00 -3.344886894815E+02 -7.143504510036E+02 2.997888497431E+00 -3.877362856274E+00 1.734812901045E-01 4.292746670515E-01 -7.533610809887E+00 -2.994877143958E+01 4.189355244998E-01 -5.822814193709E+00 1.795049994488E+01 -2.422962203513E-02 5.609781084565E+00 3.784786854683E+00 -2.509806124872E-01 -5.735823147980E+01 8.877199046282E-01 6.678054215918E-01 8.289303134147E+00 7.963349392804E+00 1.069808968680E+00 -4.839115010735E+00 2.795868920842E+03
 -2.559245473384E-01 -2.434599308871E-01 8.889963176122E+00 -8.049871780044E-03 -2.333657692975E-02 4.100256819065E-01 -9.878586500354E-03 1.434597610962E-02 -2.070115099892E-02 2.073592636016E-03 1.061582355683E-01 7.294877643778E-01 -8.108395684148E-02 9.172906425004E-02 -8.059477078664E-01 2.523718941683E+00 2.521254219673E+00 -1.159772600724E+02 4.220877986791E-02 -3.703765402628E-02 4.116471929565E+00 9.170482491868E-02 2.520974680325E-01 1.004424115635E-01 1.011262718389E-01 -4.906103913782E-02 1.247748623025E+00 -8.646962465024E-02 -5.686939548388E-02 -6.603332088463E-02 2.568640248587E-01 2.495750170684E-01 7.036412146453E+00 1.486214499360E-01 -1.490046360272E-03 4.019883040270E+00 -2.283911089529E+00 -1.042511250680E+01 2.204634282720E+02
 6.213703864001E+01 1.058171779929E+02 -1.820824478144E+00 -6.774803127755E+00 6.532296309536E+00 1.419167009016E+00 1.423192625568E+01 -4.593152431012E+00 1.222392940912E+00 -3.544727542426E+01 -1.519961362594E+01 7.440629488317E+00 5.362778996372E+00 -4.119633042687E+01 -7.823854461958E+00 -7.166810645537E+02 7.251145581815E+01 3.672294999115E-01 -1.389984177758E+01 -1.250627642012E+01 -2.294612274261E+00 4.218557869501E+01 -6.409616804037E+01 -2.367394943504E+00 -1.317804180620E+01 5.186068220885E+01 9.978192060796E-01 1.575776855122E+01 1.519487560878E+01 7.598079384474E-01 -6.377811060572E+01 -2.788017394701E+01 4.662736748528E-01 -7.438707522766E+02 -1.126059843232E+02 -2.592047834871E+00 2.871828209242E+01 -1.387371272345E+02 6.274916101850E-01 2.691919144631E+03
 6.658734199818E-01 -7.306135237445E+00 -1.378236355082E+00 -1.506409537395E+01 6.460134554950E+01 3.601169867035E+00 2.964767247802E+01 -3.066422614385E+01 4.008892138426E-01 -3.890209840089E+01 3.373117540856E+01 9.893619135858E+00 -1.500368828581E+00 -8.646330531560E+01 -8.548880137757E+00 1.114941000176E+01 -2.620006658611E+03 1.164019552558E+01 -2.059605401918E+01 3.993872670383E+00 -4.180233684530E+00 1.812408779472E+01 -1.509953593811E+02 -1.636108080364E+00 -2.812601664268E+01 8.804787597926E+01 8.022350595920E+00 2.687600288322E+01 2.153800958401E+01 9.302990633946E-01 -1.443174007049E+02 -2.052458114846E+02 1.395887802695E+00 -9.498421290874E+01 -4.502514673032E+02 -4.453303723066E+00 -1.209142722652E+02 -7.703964717668E+01 7.218333355475E-01 -2.979346814242E+02 3.835425703011E+03
 -3.337073751408E-01 -3.826090824304E-01 -2.133594409662E+00 -7.543687931923E-02 -8.152483396897E-02 1.190241075038E+00 -7.288166385814E-02 2.158328992041E-01 -3.338303340096E-01 5.583943607013E-01 2.323400970101E-01 9.207086951121E+00 3.693852325052E-01 3.083370281475E-01 -8.499484371125E-01 8.655957933466E-01 1.089749353434E+01 -1.238307760963E+02 2.130283722581E-01 -9.605549541731E-02 -1.109354542845E+01 6.507427496187E-01 1.000723350458E+00 5.050988454899E-01 7.184735514846E-02 -2.963820665945E-01 3.726012610498E+00 -2.971123904607E-01 8.783329850559E-02 2.864365738235E+00 1.201892920258E+00 2.173359585030E+00 -9.334016996535E-02 3.458683510989E-01 1.821179472925E+00 -5.936710147441E+01 5.676389525881E-01 3.580881238540E-01 3.470248213691E+01 -1.791482785470E+00 -1.569448520468E+01 2.223228813400E+02
 -2.192548474206E-01 -8.648748740470E-01 2.279056070422E-01 1.839112685232E+00 -9.812553747378E+00 -6.178050973334E-01 -4.030911702750E+00 4.655820455575E+00 6.383477876283E-02 6.632032211361E+00 -2.713871772591E+00 -1.361282436819E+00 -7.746708640950E-01 5.417744758837E+00 7.365827055348E-01 -4.099361796902E+01 -5.116270892636E+00 1.380053029097E-01 2.505930955637E+00 1.915977847188E-01 5.297639011436E-01 6.126755799403E+00 1.433199185450E+01 6.819897212232E-02 2.068081918848E+00 -8.834943976939E+00 -1.775594377863E+00 -2.902236137807E+00 -1.532321501621E+00 -7.516585980397E-02 -1.241149088687E+03 -2.722619789744E+02 1.314337111485E+00 -6.299313918456E-01 7.123192672997E-01 9.659772160023E-01 -1.244116029708E+03 3.420000498997E+02 -2.393638036322E-01 9.111648433052E+00 4.731376569980E+01 -5.646769218730E-01 2.998520799387E+03
 1.542841938695E+00 1.747960598144E+01 -4.880431708748E-01 4.820669262126E+00 6.615979773220E+00 4.171535598019E-01 -7.689475516357E+00 1.310631429896E+00 3.103098603077E-02 1.689301680283E+01 5.260356580903E+00 3.316951095950E+00 8.887371439723E+00 5.438693899324E+01 -1.828795405685E+00 -8.242492142081E+01 -6.643559697407E+01 6.003715447681E-01 1.709853092764E+00 -7.517440101118E-01 -1.089383216125E+00 -4.494589948343E+01 5.609881307096E+01 -9.623949795810E-01 1.675545912961E+01 -5.302707665340E+01 1.410780559419E+00 -9.125624429131E+00 -1.021814619896E+01 5.317219849238E-01 -3.595889796545E+02 -8.276435038143E+02 2.380858844795E+00 -1.143065919036E+01 -6.380384010162E+01 -2.432966649505E+00 4.051514721696E+02 -6.911164104771E+02 2.034195474540E+00 6.659454310464E+01 1.110309963973E+02 -4.741025918377E-01 -4.508351226683E+01 3.145034939543E+03
 4.744884212990E-03 -4.655102186636E-02 4.828961501105E+00 -8.447957970844E-02 2.609006515871E-01 -4.389121147330E-02 1.627807704389E-01 -1.349147399622E-01 8.001512583585E-02 -3.097600852097E-01 6.166830930111E-02 1.757634660109E-01 2.461218107908E-01 -3.944264507502E-01 -3.131191675954E-01 5.504173879440E-01 5.138876705056E-01 2.295831151120E+01 -5.729382529832E-02 -1.495991220392E-02 -3.899786523091E-02 4.132032822336E-01 -4.042682871636E-01 -1.619451193521E-01 -9.881155281987E-02 5.227550870495E-01 -2.706208277303E-01 1.063815634335E-01 1.795835594321E-01 4.347939898208E-02 3.058974580444E+00 3.442547584816E+00 -7.971267872440E+01 -4.158356462324E-01 1.512050475697E-01 2.823605809487E-02 -1.427923071095E+00 1.668535558680E+00 -8.821840862561E+01 4.822765530369E-01 -2.673797463919E-01 -7.668479123189E+00 -2.041635668444E+00 -1.212241578545E+01 1.929931103100E+02
 -1.018387776951E-01 -1.316651821129E+00 -3.755283098517E-02 -1.033035541083E+03 3.357537542483E+02 -1.041258650947E+00 -3.144941005291E+00 4.898637000486E+00 -4.441828254419E-01 -9.515007268964E-01 1.051778343197E+00 1.507493971489E-01 -1.942248462759E+00 -3.181161548701E+00 -4.157689713604E-01 -1.227920550672E+00 2.363447351200E+00 -5.912072708008E-02 -3.072297632032E-01 -4.688095953106E-01 -6.158546677523E-02 -1.024631348895E+01 2.470085465753E+01 -1.579664945859E-01 4.001880112530E+01 6.185888419382E+01 -6.748471423545E-01 1.100547625161E+00 5.245959028885E-01 1.553118705846E-01 -1.860593312523E+00 6.653689682948E+00 7.879897818692E-02 -9.886696440532E-01 3.772203464829E+00 4.438341297927E-03 1.506535302882E+00 9.109385507407E-01 6.595421229649E-03 -8.496410474536E-01 2.817541437636E+00 9.389743661456E-02 -1.342386231020E+00 4.507149056582E+00 5.312484518071E-02 2.348650209936E+03
 1.736076554981E+00 2.946838557690E+00 -1.275470282231E-01 3.409289044789E+02 -5.996889910059E+02 5.793623956940E-01 6.551595318465E+00 5.187429575727E+00 -4.349169978554E-01 1.177292782779E+00 2.646666371952E+00 9.866660072408E-01 2.237819966529E+00 1.388010873491E+00 -9.008304862892E-01 -4.562878055171E+00 -1.880474530508E+01 2.173428395975E-01 -7.236923275194E-01 -2.332497792229E+00 -3.240044830487E-01 -4.688263973691E+01 6.354094133221E+01 1.095196453923E-01 -9.743202031180E-01 -9.897508874329E+00 9.291990830188E-02 -1.173933001123E+00 -2.332312133864E+00 3.169353260482E-02 1.546337110670E+01 -7.879244951631E+00 -2.102871247343E-01 1.939019959640E-01 -1.993603496709E+01 -8.086622163774E-01 8.950874418897E-01 2.422252671203E-01 -7.910744535292E-02 1.345211138760E+01 1.231615426470E+01 1.870848125761E-02 1.718473410229E-01 -2.115682853639E+01 5.393001302795E-02 1.343183225385E+01 2.622002391592E+03
 -2.125106085940E-01 5.452859398200E-01 1.158427384531E+00 -1.240257521924E+00 2.894799626614E+00 -7.885990363232E+01 -1.162015777565E+00 3.242227263475E-01 -7.519514442960E+00 1.164007128871E-02 -3.742393381364E-02 -9.543163388866E+00 2.067830270939E-01 4.649148216599E-01 1.678316244219E+01 1.582515534170E+00 3.695992156675E+00 6.076398267024E-01 1.796263534683E-01 -1.188511929263E-01 3.500304430949E+00 -1.838109694886E+00 -2.333554119278E+00 3.371537843365E+00 8.249693694759E-01 1.779521257809E-01 -9.351106281074E+00 2.746432792707E-01 2.523735351697E-03 9.447232685682E-01 -1.289149977402E+00 -3.665810087881E+00 2.400058474555E-01 -4.135065978973E-01 -9.346512581421E-01 7.437187992657E+00 -3.953578198994E-01 -1.199972593207E-01 -7.668009647826E-01 -9.842503075391E-01 -4.946636728695E+00 -1.972165292199E+00 9.095065392580E-01 -1.202963463317E-01 1.280008363969E-01 -3.471792754421E+00 -9.008911187277E+00 1.810405007268E+02
 1.493561131317E+00 2.148902549484E+00 -1.417404559927E-01 3.669751905912E+01 5.372166352231E+01 1.336433934444E-01 -2.143645060970E+01 3.087994507466E+01 -1.224234966576E-02 6.730231284491E+00 -2.592408389898E+00 1.331963446836E+00 4.559866138673E+01 2.204193429606E+01 -1.005663964040E-01 -2.469824730480E+01 -4.495678309422E+01 1.458304260886E-01 2.409208768059E+00 1.231207393381E-02 -3.961911670794E-01 -1.216213368413E+01 2.661056908125E+01 3.652294323945E-03 -1.004781536901E+03 3.070317617640E+02 1.681358171042E+00 -4.723843434427E+00 -2.734813466879E+00 -1.380322776895E-01 2.602864955370E+01 2.024264380974E+01 -3.835364914340E-01 -4.684797358390E+00 -2.249867275037E+01 -1.167941511538E+00 1.549718842878E+01 1.125261977175E+01 -8.050691240398E-02 2.613817393702E+01 5.001387838503E+01 -6.532405154880E-02 -4.673294074543E+00 -2.648344332802E+01 2.210772277756E-01 -4.289204339456E+02 -1.321368956679E+01 5.191654126595E-02 2.541463501705E+03
 -1.084753414044E+00 -1.185056618308E+00 2.624849409995E-01 2.214073357925E+00 3.105533656413E+00 5.255062061912E-01 -3.211006763495E+01 5.048172476497E+01 -5.561173786252E-01 -1.244376494884E+00 -1.396020694669E+00 -1.811321416812E+00 6.653082039701E+01 -9.627171070703E+00 1.329518875649E+00 9.144011227417E+00 1.643108460408E+01 -2.141154980870E-03 -6.008673273771E-01 1.578771717678E+00 5.373255910161E-01 6.062789966908E+00 -1.037220537276E+01 3.747006107296E-01 3.184596273358E+02 -6.138906506924E+02 6.568036514800E-01 8.235939488968E-01 1.990090606872E+00 -7.237994688805E-02 -1.203037510657E+01 -6.916987496559E+00 6.881408161935E-02 3.975650720883E+00 1.236855032288E+01 1.089318094369E+00 -4.793121321639E+00 -3.479980744671E+00 9.408426402830E-02 -1.430821176974E+01 -2.024375096295E+01 -1.464521333098E-01 2.050797921932E+00 1.214085656002E+01 -2.606522771044E-01 7.885767647533E-01 -1.506768356668E+03 3.904386785140E+00 1.319335277209E+02 2.699351596656E+03
 1.219711578105E-01 1.149941494030E+00 1.806037530979E+00 -7.847071168051E-01 -8.004592641075E-01 -7.595454835952E-01 4.841607304988E-01 5.175677546486E-01 9.142561423429E+00 -3.942080563290E-01 2.905113031616E-01 -1.492061281774E+01 -9.003110895241E-01 -5.672357984217E-01 2.107057157467E+01 2.392874699304E+00 5.722290486730E+00 1.203870780156E+00 8.773064906342E-02 -1.255302476575E+00 9.632264861085E+00 -2.257012313575E+00 -2.193041266184E+00 -1.113058831806E+01 1.195669466795E+00 1.249891912559E+00 -9.430019621611E+01 9.764615621351E-01 1.164588409917E-01 5.896191066717E+00 -1.945290555828E+00 -6.343628166304E+00 3.734959905407E-01 -5.512133757217E-01 -1.928589297711E+00 1.211767695188E+01 -4.039866257370E-01 -3.473302397960E-02 -1.236680171820E+00 -1.736454327710E+00 -8.186165835722E+00 -3.408190074185E+00 1.613186156182E+00 -6.596525835689E-01 2.292840251632E-01 2.719794705129E-01 7.567324350187E+00 -5.670951798324E+01 -2.581460149330E+00 -1.026502343840E+01 1.915633056322E+02
 -5.049210345721E-01 1.032754862960E+01 -2.451504950491E-01 4.069221076103E+01 -5.753273868394E+01 -6.886454513622E-02 -1.503799194865E+00 -2.617926084771E+00 -6.001587528206E-02 5.246334300166E+00 3.705200915107E+00 1.357601559968E+00 4.226623717683E+00 1.736795202343E+01 -6.816190589122E-01 -9.442549218778E+00 -4.777826163345E+01 3.887139863292E-01 1.465013497522E-01 -5.881906644665E-01 -4.777644376488E-01 -6.554427061843E+02 -4.069759199332E+01 2.490031863617E-01 6.472782739499E+00 -2.003751701261E+01 6.534373238423E-01 -3.060932473930E+00 -3.308379756971E+00 2.233024620781E-01 2.406897011946E+01 -1.732971135217E+01 -2.785734657337E-01 -1.925528265746E+00 -3.042204503543E+01 -9.698047343622E-01 -8.310953263773E-01 -5.997671440366E-01 -6.860858191227E-02 2.488157176255E+01 2.879101706743E+01 -1.654872739955E-01 1.766978751100E+00 -3.068454249090E+01 1.360405039174E-01 6.019035034786E+00 -9.095769183641E+00 9.948077119956E-01 -3.227059394432E+01 3.725490768177E+01 -2.749609410296E-01 3.062267751567E+03
 -8.070995975294E-02 8.642628905898E+00 2.183598782778E-01 -3.488174692758E+00 2.051110038204E+01 -1.406717468823E-01 2.276814601716E+00 -5.959403488810E+00 -7.879621110015E-01 -3.217536765172E+00 6.647086240348E+00 -1.464248250382E+00 4.398771898742E+00 1.132134267957E+01 2.450581052783E+00 1.234728810747E+01 -1.511733729721E+01 3.133524693790E-01 -2.938130085097E+00 -2.862526795414E-01 3.757660347146E-01 4.632068570557E+00 -1.469696804254E+03 6.848350017926E+00 3.864872702409E+00 -1.034618216588E+01 8.385360379071E-01 -5.904370244207E-01 -1.172845959591E+00 -2.131338283942E-01 1.954449499332E+01 -4.872385176409E+01 -2.821964271037E-02 1.433259504549E+00 -3.814368287877E+01 5.990104546392E-01 -1.666353218353E+01 -1.250077097176E+01 1.290346976347E-02 2.201573987570E+01 -1.428442242004E+01 -1.453591695648E-01 6.773998603668E+00 -3.599494634457E+01 -2.270652276383E-01 8.946646833356E+00 -1.103989697177E+01 -3.037995483389E-01 -4.167940336731E+01 6.331143502635E+01 4.226965293476E-01 -3.607932960986E+01 2.953930260014E+03
 4.280520010134E-04 -2.114298348144E-01 -6.247358237948E-01 4.644955241600E-01 6.666308622360E-01 7.770975433259E+00 -5.648260070677E-02 -1.027839741737E-01 -2.347202708970E-01 4.379315847629E-01 2.090725996010E-01 5.237490798705E+00 -2.271369205806E-01 5.693756925247E-01 -6.968875768647E+00 -1.438363163104E+00 -2.520146935895E+00 -3.956935572969E-01 -1.476603512921E-01 3.339843774748E-01 -1.929275069521E+00 -3.615698830265E-01 7.212152721988E+00 -7.921197074194E+01 1.043814453900E-01 3.543783282595E-01 1.357065706849E+01 -5.284838442761E-01 -4.524080253190E-01 -6.941793771096E-01 1.593236653900E+00 2.003548808281E+00 -9.987765828557E-02 9.568546949604E-01 1.753092133620E-02 -4.072618400825E+00 4.293925244045E-01 2.106956675659E-01 4.584728575118E-01 4.485309763503E-01 2.325812193928E+00 1.171368208990E+00 -5.336158024826E-01 -1.065225951009E+00 -1.075174538761E-01 4.465479380161E-01 -1.008204556915E+00 -1.518108134646E+01 -7.707540703060E-01 -1.009927406614E+00 -1.810371303533E+00 -1.939521803728E+00 -1.310003505468E+01 1.696392351859E+02