#BIOSYM hessian 1
@Type: Hessian Update
@Units
 distance: 	A
 energy: 	Kcal/Mol
#header
@natom 66

#label
C1      C2      C3      C4      C5      C6      C7      C8      C9      C10     C11     C12     C13     C14     C15     C16     C17     C18     C19     C20     C21     C22     C23     C24     C25     C26     C27     C28     C29     C30     C31     C32     C33     C34     C35     C36     C37     C38     C39     C40     C41     C42     C43     C44     C45     C46     H47     H48     C49     C50     H51     H52     H53     H54     H55     H56     H57     H58     H59     H60     H61     H62     H63     H64     H65     H66

#element
C  C  C  C  C  C  C  C  C  C  C  C  C  C  C  C  C  C  C  C  C  C  C  C  C  C  C  C  C  C  C  C  C  C  C  C  C  C  C  C  C  C  C  C  C  C  H  H  C  C  H  H  H  H  H  H  H  H  H  H  H  H  H  H  H  H 

#matrix
198
 2.786929619275E+03
 -2.853890710262E+01 2.820631139575E+03
 4.147571611573E+00 -5.347141153556E+00 1.934750325296E+02
 3.772209518692E+01 6.651726809508E+01 -1.931169352796E-01 2.796433755890E+03
 -7.401173667105E-01 -1.957829014150E+00 4.842130942322E-02 -2.028837745481E+01 2.767848299787E+03
 9.914416442669E-03 1.386936740576E-01 8.693757330634E+00 1.574741591505E+00 -6.211210546420E+00 1.911361689489E+02
 -2.348467967137E+01 3.477015230477E+01 -1.368160175139E-01 -2.570447932533E+00 -3.083425950178E-01 9.453428455863E-02 2.789928361314E+03
 -3.130463200720E+01 6.000445451502E+01 -1.795804147305E-01 4.202801663264E-01 7.521456344648E-01 3.783762767088E-02 -2.135232687578E+01 2.839149100102E+03
 7.130775425740E-02 -8.697401352764E-02 9.135448921887E+00 5.013656487739E-02 -4.787181841952E-03 -1.246868595982E-01 4.976674132749E+00 -7.507602502097E+00 1.850751496448E+02
 3.925558583394E+01 -6.862342539630E+01 3.388258395038E-01 -1.954352225406E+01 3.608556422498E+01 -1.325441459394E-01 4.089415702620E+01 7.117343376189E+01 -2.275306325834E-01 2.791495522671E+03
 6.645177418236E-01 1.309167272368E+00 -1.247292458192E-02 -3.153978166183E+01 5.986598321857E+01 -2.794971530047E-01 2.573868342913E+00 -3.777043943311E+00 -1.460685928469E-01 -2.676133853853E+01 2.831542883882E+03
 1.281597284869E-01 -1.224165658673E-01 9.437026645246E+00 5.568028645373E-02 -7.137705365667E-02 9.212914771387E+00 -2.928960328683E-02 1.453546214225E-01 9.347230528884E+00 2.764913456772E+00 -8.798422796155E+00 1.986526759440E+02
 -8.100361230929E+00 -2.052034522409E+00 -3.420801882626E-01 -7.341001034933E+00 -5.036809098159E+00 -1.203874588267E-01 3.012111743899E+01 -7.156547502432E+01 1.309273050789E+00 -1.728819291468E+01 5.007544294406E+01 -4.011134580931E-03 3.069636681720E+03
 1.090358614356E+00 -4.461332420225E-01 -4.250420322644E-02 1.616990990204E+00 -8.423024986328E-01 -4.450097612823E-02 5.003997632191E+00 1.392387252049E+00 3.473751778961E-01 -3.134006756674E+01 6.476140161421E+01 -8.380318658422E-03 -3.222951242854E+00 3.154453090140E+03
 9.262095493703E-02 -9.961442387140E-02 1.387691018622E-01 1.310786495959E-01 1.080067857598E-02 3.263209933901E-02 1.523330970860E+00 -1.036578567467E+00 1.045673426874E+01 9.183380066658E-01 2.112863175989E+00 9.456597379376E+00 -3.946617411614E-01 -1.133743746639E+01 2.309193675154E+02
 -1.227556297735E+03 4.494657528995E+02 -2.555876419610E+00 -4.657953698507E+02 -1.479876863132E+01 -3.876041287569E-01 1.771192913749E+00 -1.027267326022E+00 -6.042432504266E-02 -3.755012950106E-01 -1.840561025567E+00 -1.873024780066E-02 7.196536348244E+00 -8.514769878119E-01 -7.253600292477E-02 2.823377220139E+03
 4.439644710790E+02 -7.396597369872E+02 2.023590044584E+00 -1.425730145104E+01 -1.432853039874E+03 3.144486148125E+00 -1.980702676267E-01 -1.627838196510E-01 2.813645771473E-02 -5.950231717317E-01 3.681272858712E-01 -8.390137577201E-02 1.418037186882E-01 1.371063485875E+00 -2.611198280997E-03 3.127002515319E+00 2.781828513488E+03
 -2.634455110184E+00 2.053231918359E+00 -8.289284151650E+01 -2.528978484256E-01 3.101638796512E+00 -8.095893874275E+01 -1.479143227430E-02 -2.695478835816E-02 4.701668621132E+00 -1.440106001759E-02 2.985330962342E-02 -9.067843550808E+00 2.250634030032E-01 3.987031097694E-02 -1.250483464698E-01 3.572659879725E+00 -5.677044297392E+00 1.926365024456E+02
 -1.197724652676E+03 -4.051932063276E+02 -1.034108233588E+00 1.772937440841E+00 -2.061010902082E-01 -1.632362058867E-02 -1.245066916227E+03 4.573014009866E+02 -3.593586568577E+00 -4.852947926108E+02 -1.859225044122E+01 -6.247073946968E-01 1.279883365522E+01 -4.424306838624E+00 -9.833288916579E-01 -2.103364798509E+01 -3.235680342214E+01 2.589691062300E-02 2.813017153179E+03
 -4.059462512193E+02 -7.046513006272E+02 8.390646028341E-01 -1.571510754741E+00 -2.692594503318E-02 -6.009859534128E-02 4.588645260790E+02 -7.445637964659E+02 3.037876817501E+00 -1.857836117176E+01 -1.512434584019E+03 4.562944400792E+00 -7.052518090230E+00 3.614920938603E-01 -1.842861189952E-01 3.578690549280E+01 5.884496208009E+01 -3.307535247887E-02 -3.605586975197E+01 2.845059464222E+03
 -8.898612177530E-01 7.936596222708E-01 -8.280058918848E+01 4.444521614272E-02 -1.723570325930E-02 -9.197833857070E+00 -3.737926053442E+00 2.794330827701E+00 -8.364796984685E+01 -5.221283382226E-01 4.422657136871E+00 -8.496296075275E+01 2.951534342416E-01 1.282762970527E-01 -9.878262575837E+00 -1.288270789096E-01 -1.436202519112E-01 9.021732257322E+00 5.086428468155E+00 -7.994550308165E+00 1.955964115960E+02
 2.654665964853E-02 -9.461186835675E-01 -7.761367937965E-03 -1.223652238191E+03 -4.163775682375E+02 1.571660525017E-01 2.604539014535E-01 8.098335306472E-01 1.466627715083E-01 -1.220220003819E+03 4.464189219230E+02 -2.458530988360E+00 -5.542325954262E+00 -3.342733078194E+00 -1.657068129182E-01 3.851227568243E+01 -4.939663319501E-01 1.469064434896E-02 4.157328033085E+01 -8.794193789108E-02 9.590865220957E-02 2.801834380065E+03
 3.497115378574E-01 7.212280877306E-01 7.913333558963E-03 -4.173402554728E+02 -7.111345430202E+02 1.498826968156E+00 1.879826420390E+00 -6.551522036410E-01 1.438592644959E-02 4.421663438202E+02 -7.382942499067E+02 2.559473142613E+00 9.031099923432E+00 1.421168277929E-01 -2.062530929145E-01 -6.825031842745E+01 1.247493370478E+00 -2.924569139744E-02 6.841624487494E+01 -7.635608949143E-01 6.477130077048E-02 -9.933517019167E+00 2.812971041109E+03
 -9.340683604057E-02 -7.886825252601E-02 -9.070156289008E+00 3.110058884551E-01 1.448973871634E+00 -8.366165876667E+01 -2.189452484198E-02 1.213068091561E-01 4.612430215484E+00 -2.619634481998E+00 2.678616963068E+00 -8.313007358862E+01 -4.280736450106E-01 -2.882508733008E-02 5.051663214904E+00 1.747744859226E-01 6.941462612627E-02 8.883647038923E+00 -8.694076942224E-02 -1.731249543818E-02 9.123778874943E+00 2.395659375027E+00 -9.027871909048E+00 1.971892982201E+02
 5.229191298669E+00 6.085557548000E-01 -8.377910538818E-02 4.049408747945E+00 2.909700307585E-02 -8.130766485829E-02 -1.178741536779E+03 -4.124100374991E+02 -6.258337268544E-01 4.434721806946E+00 -1.671821844707E+00 3.957639701967E-01 -5.686628148622E+02 -4.499292638733E+01 -1.459752749277E+00 -2.805343624980E+00 7.682532735772E-01 4.751875321820E-02 -2.751132153372E+01 -3.104360393145E+01 1.971946416182E-01 -3.265137296528E+00 -1.580099868451E+00 -5.556772454012E-02 2.790044700525E+03
 -2.790683705132E+00 3.640459192403E-01 3.578325213424E-02 -1.421505494379E+00 -2.598685000959E-01 9.488496971605E-02 -3.957852186680E+02 -7.520714770539E+02 9.700847800822E-01 -2.397637162160E+00 1.058143805590E+00 -5.320220552344E-02 -6.509783560973E+01 -1.628540133406E+03 8.151949567086E+00 1.805223544377E+00 -1.066483220974E+00 -2.449978513000E-02 4.090879920182E+01 5.646887116193E+01 -7.265974253220E-02 3.509635972084E-01 1.314139667912E+00 -1.942909207386E-02 5.027697437703E+01 2.995025887832E+03
 -3.346095742216E-01 2.604728825380E-01 4.802485542002E+00 -3.401344609529E-01 -1.953273487950E-01 3.166213507628E-01 -4.501236816265E-01 2.534983290261E+00 -8.009334092688E+01 -6.820554350928E-01 -3.868401087955E-01 -1.012943125792E+01 1.006676383045E-01 4.154459797541E+00 -9.428224256925E+01 3.450492644587E-01 -1.047424361066E-02 -1.749959703125E-01 4.965560369800E-01 -1.318410343486E+00 7.737598195067E+00 -3.014405964641E-01 3.464156780436E-01 3.169969907448E-01 3.337415848282E+00 -1.048094790134E+01 1.867920432054E+02
 2.696914841950E+00 1.109937385037E+00 8.643346937120E-02 3.544760316968E+00 8.316257558518E-01 6.204562565236E-02 9.843064949242E+00 -2.117365835513E+00 -2.652924071946E-01 -1.207560879366E+03 -4.102375110635E+02 8.297720426233E-02 -1.312437313598E+03 4.881568781344E+02 -2.163345593296E+00 -2.537732580765E+00 4.992826959106E-01 -8.023708518487E-02 3.374182553526E+01 1.277512962256E+00 -9.899929649136E-02 -1.820142048477E+01 -3.410083560052E+01 2.456080666834E-01 3.443541006781E+01 1.448074108029E+00 8.332057581271E-02 2.907937313945E+03
 -2.896527478452E+00 -1.047664393370E+00 -9.522312860517E-02 -3.150353336859E+00 -9.600137815309E-01 4.545954723278E-03 -1.053262595016E+01 3.918846255664E+00 2.319240370508E-01 -3.977046767706E+02 -7.002896380289E+02 1.922476597056E+00 4.640112087225E+02 -8.128082240941E+02 7.272138466605E-02 2.984279610902E+00 -9.180755496611E-01 5.429386247787E-02 -6.256299613889E+01 9.653990528807E-01 6.185461033138E-02 3.361027521122E+01 6.098270923284E+01 -2.913186667636E-01 8.804753019232E+01 -9.034853167333E+00 1.027818535275E+00 -6.901367223604E+01 2.829686866181E+03
 1.058684664314E-01 -2.376751572107E-02 4.423600502849E+00 2.425279874454E-02 -2.479779433831E-02 4.415526230744E+00 -6.683915192309E-01 3.558390230769E-02 -9.818131291759E+00 4.884322074459E-01 1.750313758022E+00 -8.732346105580E+01 -3.700748329259E+00 4.278868606841E+00 -9.892399110941E+01 1.110954377886E-03 -8.701990115025E-02 6.847385615309E-02 4.460990484782E-01 3.761187892516E-01 1.012604389723E+01 -1.306996156420E-01 -1.477545881209E-01 8.675431337578E+00 -2.578830375706E-01 -6.776815426369E-01 6.610645412410E+00 4.380144760948E+00 -1.145510048877E+01 2.153410380559E+02
 6.119377296294E-01 1.432048326254E-01 5.482475491690E-02 -7.114837382154E-01 -4.776041114638E-01 8.633193138654E-02 1.430586434266E+00 -1.889612052377E+00 -1.192422460401E-01 3.024322880550E-01 -8.164244555216E-02 2.786314307721E-02 -3.485752615592E+00 -3.595465454108E+00 -1.969611993319E-01 -1.152464517052E-01 6.213112508621E-01 -7.937985122607E-02 -1.217291998703E+00 -4.573969084132E-01 -4.927203586188E-02 -9.014850874414E-01 3.176334529443E-01 1.016276522478E-01 -4.884005814594E+00 5.820863047007E+00 2.925858913304E-01 7.170502515315E-01 1.383316302797E+00 -1.228369778665E-01 2.770821216178E+03
 8.620479433205E-02 1.117006849845E+00 7.829094801840E-02 2.529871096069E+00 2.127712360797E+00 2.692140373427E-02 -9.686288849862E-02 3.677332821125E+00 -1.754763469479E-01 -2.144243202858E+00 -2.294127351966E+00 -1.672217447247E-01 2.162886521679E+01 8.340505907752E+00 8.943483560533E-01 -1.284107070426E+00 -8.181565097560E-01 -4.829727137953E-02 -9.772763012078E-01 9.365777083966E-01 -6.423545922465E-02 2.196189077409E+00 -3.069708977466E+00 9.409939954470E-02 1.046088069215E+01 -9.509755407698E+00 1.341964633593E-01 -5.592791345630E+00 5.251029799225E+00 1.779214147791E-01 -1.106121310024E+00 2.835945720371E+03
 1.851878190616E-01 -1.764756637489E-03 -3.252108640164E-01 3.598914115497E-02 -4.187492392111E-02 -4.076796091037E-01 -4.911937738984E-01 -3.662863792482E-01 6.675797550845E-01 -2.297486672954E-01 4.746816999316E-02 1.744940636933E-01 1.210087178585E+00 4.746396013741E-01 -4.770154739834E-01 -1.622735831450E-02 1.296150914108E-02 4.822281298984E+00 7.569371281385E-03 1.308582524909E-01 1.620904807930E-01 3.520703055655E-01 2.415887208381E-02 -4.230865015120E-01 9.065151851089E-01 -2.885601426119E-01 -1.568406898150E+00 -3.325964204532E-01 2.727088063929E-01 6.899259532464E-01 7.506535963019E-01 -2.384418415127E+00 2.026628950230E+02
 -1.293979803014E+00 7.278102222046E-01 5.045858774017E-02 8.789679569349E-01 2.433064804341E+00 -8.294774768838E-03 -4.042837806497E+00 3.796625301088E+00 -1.678017144910E-01 -2.287323274435E+00 -1.702480516133E+00 -1.856687446579E-01 1.653068216038E+01 1.082668916411E+01 1.118105496014E+00 1.339040669313E-02 -1.501954498382E+00 -2.729300758044E-02 1.935110315845E+00 6.921328470791E-02 -2.497390443059E-02 2.797797037584E+00 -2.188424987273E+00 1.436050630420E-02 1.060909821170E+01 -1.093181087168E+01 1.185411032945E-01 -3.421875422206E+00 -1.198049317137E-01 1.114009401959E-01 5.594690728628E+01 4.998630556517E+01 -2.634787012498E-01 3.180034952167E+03
 5.557203944200E+00 2.528186624941E+00 -1.975082449074E-01 8.963062890793E+00 1.516101607000E+00 -2.518843841315E-01 1.914237610468E+01 4.047359264394E+00 8.959545918037E-01 4.352217575143E+00 9.302011133546E-01 2.643316619259E-01 2.876465817280E+01 -1.063039746996E+01 -2.034515128009E+00 -4.742037352092E+00 -1.715032991448E-01 9.015947324392E-02 -1.024259919443E+01 2.659569430717E+00 1.687851768421E-01 -3.352132725303E+00 -5.214765887728E+00 -2.196389392916E-01 -2.791438561233E+01 -6.760296091818E-01 -1.590951708806E+00 -2.017604523369E+01 1.074035840567E+01 5.861511691986E-01 6.450216977258E+00 -1.406314849223E+01 2.583124077780E+00 1.357677759165E+02 3.052817580979E+03
 2.876184635755E-01 -5.990106138580E-02 -3.206087020175E-01 1.488218083738E-01 6.902629193799E-02 -4.162849264002E-01 4.385422730171E-01 -2.331131598251E-01 5.601002979375E-01 1.771883206839E-01 6.374652388284E-01 7.943244230557E-02 3.338471755404E-01 -7.704920145154E-01 1.760266186658E-01 1.985973943648E-01 3.667295954072E-02 2.419903736215E-01 -3.927529506924E-02 2.841820478397E-01 1.357359845020E-01 2.028220657600E-02 9.629960759452E-03 -4.277708613625E-01 -1.396730169341E+00 -7.142340557235E-02 -1.435377356196E+00 -4.520654920519E-01 -1.351726184614E-01 5.953348659778E-01 -2.342200565775E+00 -2.155207871855E+00 1.180207086298E+01 4.177575278015E+00 -2.555077063584E-01 1.919367644277E+02
 -2.055214641390E+01 -3.405284130133E+01 -2.303235918028E-02 3.975016059104E+01 -6.179627146155E-01 6.537663327196E-02 -1.445321768405E+00 6.438985860324E-01 3.695929789717E-02 1.473374509674E-01 5.571556171273E-01 2.015794777658E-02 -4.959271392992E+00 -2.856799636348E-01 -3.978020732124E-02 -1.248098813584E+03 -4.322325264757E+02 -6.144391319981E-01 8.596949009289E-01 -3.741946109650E-01 -1.500993291112E-02 -1.269634196266E-01 6.867321011958E-01 -1.181735844232E-02 1.602215577445E+00 -5.660087991169E-01 -2.143926428849E-01 1.758665065199E+00 -1.302955298990E+00 6.235925992401E-02 -1.897940059474E+01 3.532289301814E+01 4.842707846939E-02 6.949033245611E-01 3.608636171740E+00 1.803192379817E-02 2.782915607674E+03
 3.509808051460E+01 6.089402576227E+01 -7.058278967396E-02 -6.814280246316E+01 -5.308369184115E-02 -7.836007681929E-02 -2.814894538559E+00 1.203728818843E+00 3.030580912396E-02 7.114815223902E-01 8.564948551557E-01 3.741089610330E-02 -7.036458969994E+00 2.062047343020E-01 -2.103315939493E-01 -4.367918493506E+02 -7.276056394841E+02 5.785814383174E-01 1.458203295749E+00 -3.679050018987E-01 4.198466170420E-02 -5.422897444085E-01 1.055773107454E+00 -1.147479713141E-02 2.482579286076E+00 -1.798332799329E+00 -5.651888620170E-02 2.178342470717E+00 -2.877322482203E+00 -1.622874101319E-02 -3.225527637708E+01 5.924748762287E+01 -1.666081303336E-01 -9.862395834522E-01 2.603817036220E+00 -1.343698090620E-01 2.108436323375E+01 2.801862741548E+03
 -1.813724979010E-01 -2.016029413296E-01 9.778790152742E+00 1.675208757703E-01 3.609758474762E-02 9.296592438095E+00 6.852095175542E-02 5.433706484757E-02 -1.597566771518E-01 2.474864070595E-03 -3.640810592948E-02 -2.769842260864E-02 -2.595177268890E-01 -4.942871105870E-02 5.163404677227E-02 -6.780922630016E-01 6.784816247376E-01 -8.387660970239E+01 2.700597810194E-02 -2.530870217467E-02 4.581154071301E+00 -7.901511971697E-02 -3.195420951063E-02 4.707385564919E+00 -9.226978297398E-02 8.881355690868E-02 3.886427409194E-01 9.953975097371E-02 -4.973310875301E-02 -1.740403274484E-01 9.936113554639E-02 5.309489204413E-03 8.634482922802E+00 1.116521144253E-02 -3.161126597339E-01 -5.243213867024E-01 2.596879279841E+00 -3.580005422373E+00 1.917202536057E+02
 -2.671249756246E+00 -7.381934270605E-01 -1.914237616368E-01 -2.032496705493E+01 -3.119135323554E+01 -1.051643431942E-01 -6.660408286126E+00 4.702327278213E+00 4.869886589408E-01 2.072304183316E+00 4.178291241547E+00 1.417015491609E-01 -1.960836036443E+01 3.175335810860E+00 -1.082358618731E+00 2.568048046815E+00 -2.249167148823E+00 1.549372029676E-01 5.502446526889E+00 -7.975867929829E-01 1.731248291533E-01 -1.101909633660E+00 1.707654385653E+00 -3.039731895408E-01 7.276021904629E+00 -1.005073192230E+01 -8.064575797130E-01 6.166342398851E+00 -1.165815335374E+01 -4.542917917908E-02 4.271454989649E+01 -7.485467442680E+01 7.586456006572E-01 -3.434183962221E+01 3.894633665498E+01 -5.053464042694E-01 3.695979803638E+01 6.335685662230E+01 -2.818747276804E-01 2.723716243241E+03
 2.040203566820E+00 8.178513113993E-01 1.219505009679E-01 3.608136835496E+01 5.543205961959E+01 -5.595183154267E-02 2.966116998319E+00 -1.861967080681E+00 -3.369983352841E-01 -2.204215129386E+00 -3.840100006035E+00 -1.505871259490E-01 1.630607636866E+01 1.473533473951E+00 1.210466626522E+00 -3.671364762766E+00 -2.664940587967E-01 -8.761444233955E-02 -3.452402110146E+00 6.682387672407E-01 -1.292204154910E-01 2.586622486775E+00 -7.514508016959E-01 1.738900760565E-01 2.056690662562E+00 2.928019767175E+00 3.293758683176E-01 -3.440001810970E+00 8.715200820829E+00 1.829412693695E-01 -4.727591091573E+00 1.198916930302E+00 -7.618046861599E-01 -4.222724440343E+01 7.339334744740E+01 2.384848387441E+00 3.918617373796E-01 1.375414603797E+00 1.241425154331E-01 -3.031537979799E+01 2.795247419704E+03
 8.398363692358E-02 3.637460118369E-02 -1.717379703920E-03 -1.266487372302E-01 6.469475284149E-02 8.470403168705E+00 3.144356248779E-02 -2.385027467268E-01 3.147039687294E-02 -3.550015303263E-01 -5.547371621342E-01 2.068431260889E-01 1.715020268366E+00 5.109204341288E-01 -5.180065158648E-01 -1.035641319240E-01 -2.828968971248E-03 -8.820537927154E+00 -2.273433336947E-01 -1.123557465562E-02 -3.088288951435E-02 2.791789552963E-01 -2.296892632181E-01 4.336852532466E+00 7.470450584454E-01 2.915700588806E-01 7.021057274151E-02 -2.930319762268E-01 8.073657706300E-01 -6.858953947887E-02 1.485866382058E-01 -4.816354492815E-01 9.517038522616E+00 -4.660494048016E-01 5.485721115956E-01 8.750330486634E+00 3.153641832266E-02 2.604376111566E-01 8.424517302950E+00 1.147578689621E+00 -5.036303439495E+00 1.944237801010E+02
 -1.062004680215E+01 -2.089486617256E+00 -1.816230032960E-01 -5.963941447817E+00 -1.852257893511E-01 -1.052088092516E-01 -3.248726108650E+01 1.287354241199E+01 2.089315611809E-01 -1.941824911812E+00 4.439368923762E+00 -1.000494563798E-01 -3.337435956558E+01 2.807536549683E+01 2.862517426030E-01 6.194207796739E+00 -3.593027109695E+00 1.412281535711E-01 2.025969443503E+01 -2.568347454292E+00 2.157114305659E-01 4.043369915624E+00 5.262612300127E+00 -3.771189539011E-01 4.400783938160E+01 -3.483174946451E+01 -4.993954812315E-01 1.935483254992E+01 -2.975772980361E+01 -2.014092263527E-01 -1.172530046871E+03 4.260308207974E+02 -2.459632696686E-02 -6.694492079600E+02 -2.643857804298E+01 1.888295671682E-01 -1.274246289849E+00 -7.563689311158E+00 -1.931503330868E-01 -3.957513296776E+01 1.731853998399E+01 9.610006354671E-01 3.077479283126E+03
 -7.491705983197E+00 -3.465760097881E+00 1.338790441080E-01 -1.124976790828E+01 -3.449806905366E+00 2.776040175430E-01 -2.488466543877E+01 -4.038934671089E+00 -7.479519933678E-01 -3.083211539065E+00 1.342817379836E+00 -1.552847417096E-01 -5.014344434861E+01 9.401067684029E+00 1.252835088878E+00 6.231054595827E+00 -7.580213829823E-02 -4.275186507170E-02 1.435418985193E+01 -3.751150440133E+00 -8.450199754746E-02 2.492602889268E+00 8.483347846396E+00 1.338126320516E-01 2.688355964449E+01 1.526359151036E+00 1.456577188066E+00 2.736404356076E+01 -1.947796286630E+01 -7.708222044357E-01 4.031134682302E+02 -8.167197412752E+02 -4.379591874792E-01 6.899084540624E+01 -1.463917707818E+03 6.338515090666E+00 -4.619312958999E+00 -4.006264562688E+00 3.241838745440E-01 8.498220887688E-01 -1.886727522445E+00 -3.365981595272E-01 2.708607349787E+01 3.012738536676E+03
 -2.629486634816E-01 5.007505757740E-02 4.994181130002E-01 1.289174009381E-01 -1.317254995379E-01 6.163484540395E-01 9.273888470725E-01 6.310351946617E-01 -1.030908616239E+00 5.985421625882E-01 1.628914176367E-01 -3.409577991433E-01 -2.606408415110E+00 -1.271131996174E+00 9.321870073663E-01 -7.034142246110E-02 -1.320043911128E-01 -3.578787934526E-01 3.143285671860E-03 -2.179888149369E-01 -2.291440980909E-01 -7.037366972054E-01 1.310532975530E-01 6.461994807753E-01 -2.109423258641E+00 4.753653648422E-01 2.354926357904E+00 5.148852958445E-01 -7.643685962294E-01 -1.045924321230E+00 7.205314022179E-01 4.616396550960E+00 -8.886785003453E+01 -1.106343678096E+00 -5.855657736063E+00 -8.435588138547E+01 -2.204779640076E-01 2.379917164726E-01 5.266519861437E+00 -4.831750863136E-01 1.153395938307E+00 -1.029309588438E+01 5.309489794562E-02 -3.866094599465E+00 1.966204476854E+02
 9.539580646059E-02 -3.352710603961E-01 -3.973193815506E-02 -5.654853556040E-01 -1.252398510678E+00 -3.592569815125E-02 9.080711135408E-01 -5.260488748840E-01 6.750029552626E-02 -3.699214428203E-01 -4.001457803693E-01 1.070635152119E-02 4.002337210225E+00 -2.549570787911E-01 -1.613042529184E-02 -1.958066397531E+01 3.632960799758E+01 -3.772925138846E-02 -7.115224476449E-01 5.721169702224E-01 1.652775837121E-02 -4.150633006432E-02 -4.503619727249E-01 -2.364995207751E-02 -1.190744885837E+00 7.646443304139E-01 -1.269593524694E-01 -1.593030682478E+00 1.840179903790E+00 1.465634439986E-01 -1.229587608197E+03 -4.197126032464E+02 -7.535722916401E-02 1.335796988546E+00 -3.085120688841E+00 1.908842326040E+00 -1.178483506784E+03 4.205187217960E+02 -1.620973153038E+00 -4.664747420295E+02 -2.364737263131E+01 -3.152163006320E-01 -1.617092632458E+01 -3.101115640514E+01 -1.021249890323E+00 2.760849881632E+03
 1.123583389409E+00 -4.699366810119E-01 -9.292421765828E-02 -1.500438085687E+00 1.749477096320E+00 -2.059140323347E-01 3.246501852592E+00 -1.153177476012E+00 2.380047178040E-01 -1.937408006366E-01 -5.669966140553E-02 2.872543495630E-02 5.980008112439E+00 -1.616611645603E+00 -1.208726842372E-01 -3.180132006294E+01 5.976827552591E+01 -1.517131294982E-02 -1.186062125610E+00 7.353655617606E-01 6.031042011036E-02 2.318706218844E-01 -1.316221426042E+00 -1.376162832450E-01 -5.448942295310E+00 1.703649495709E+00 -4.764489116483E-01 -2.985633029771E+00 1.688883667893E+00 2.416344514712E-01 -4.241865815145E+02 -7.093146835089E+02 1.605029259719E+00 2.745853717257E+00 -8.942277220556E+00 1.076761222294E-01 4.223051784781E+02 -7.104156609167E+02 1.039648950595E+00 -1.422468479223E+01 -1.498910384126E+03 1.941159395273E+00 4.216563207046E+01 6.685992487802E+01 -2.770393020987E+00 1.635762394297E+01 2.798368300835E+03
 -1.489715893498E-01 -1.945881785785E-02 4.739477407714E+00 -1.198627031108E-01 8.730650545582E-02 -8.659283795153E+00 5.772529482606E-02 1.538118337322E-01 -3.508300215964E-01 3.559675248060E-02 -8.759808537189E-02 -1.453435145589E-01 -6.554974429596E-01 -4.342837548784E-02 2.555658228065E-01 1.168706490412E-01 -7.991438820996E-03 8.808587080907E+00 6.901045672754E-02 -8.181930536527E-02 -7.170880715543E-02 -1.238974955441E-01 -3.751253579095E-02 2.402522717406E-01 -6.015055279327E-02 1.029837821112E-01 8.035057327791E-01 2.539584812085E-01 -1.553299274590E-01 -3.292103037386E-01 -9.797599913054E-02 3.688808292016E-01 -8.457018131069E+01 4.142293524420E-02 -4.347561401444E-01 -1.128785032900E+01 -1.665773108624E+00 1.185217857374E+00 -8.014254978841E+01 -6.013371978045E-01 2.099712794792E+00 -8.274584119146E+01 -6.121192993156E-01 3.226350572257E-01 6.080780323464E+00 1.973342429848E+00 -3.715194834692E+00 1.931938334431E+02
 2.913391383649E+00 1.660684478767E+00 2.212089258211E-01 1.863546181246E+00 2.251739641505E+00 1.303769785714E-01 7.002241790355E+00 -3.884991647960E+00 -5.711713702660E-01 -4.208402288348E+00 -6.098878141945E+00 -2.242772725422E-01 3.441750233014E+01 2.110866059799E+00 1.615331566173E+00 -2.747871099229E+00 4.229486186231E-01 -1.748611224241E-01 -6.638984194874E+00 9.976271128280E-01 -2.198910603933E-01 2.945840119068E+00 -4.379960329505E+00 3.367888481436E-01 -3.674977229658E-01 6.921229275512E+00 8.016377340391E-01 -8.939819841945E+00 1.665842052489E+01 2.594428679556E-01 2.890850013594E+00 -3.208548389584E+00 -6.834900662090E-01 -1.481857036093E+03 -5.242275297345E+02 -4.730592746723E-01 1.284317541646E+00 4.089060313239E+00 2.056151415943E-01 -1.224915436406E+03 4.451094405915E+02 -2.101638826889E+00 7.788060752189E+01 4.030686398967E+00 1.153214589010E+00 3.714618516405E+01 -1.113313957383E+00 4.596725842983E-01 3.089406898753E+03
 -6.232308521689E+00 -1.790917013586E+00 -5.905959698827E-02 -4.136176834222E+00 -2.109588049610E-01 5.093858416281E-02 -1.645962306701E+01 7.577768394083E+00 7.115850207023E-02 1.106273463289E+00 5.064858785253E+00 8.558229627523E-03 -3.131550796059E+01 1.165098607877E+01 -4.106702118982E-01 4.673651296568E+00 -1.213941908079E+00 5.148711580820E-02 1.100040408460E+01 -1.685581960065E+00 9.759853658927E-02 -8.939739448481E-01 3.374671933094E+00 -1.510965253225E-01 2.528480557839E+01 -1.861116067184E+01 1.196163865233E-01 1.373521640816E+01 -1.857136971259E+01 -5.302156057056E-01 9.934356281404E+00 -1.243152318874E+01 -3.863897347916E-01 -5.703786490141E+02 -9.026718648316E+02 -1.921019495342E+00 -1.950381122787E+00 -5.514777408289E+00 2.921681521310E-02 4.134279447845E+02 -7.433643834432E+02 2.100559176158E+00 -1.685684983917E+02 -1.748820745626E+01 2.045039571006E+00 7.518659543985E+01 4.642295685812E+00 -9.780911167174E-02 1.416668723399E+02 2.828746187253E+03
 -1.578623678094E-02 -1.515029419032E-02 -8.584517687448E-02 -6.634795533008E-02 -9.155537277348E-02 4.377560301906E+00 -5.408480219136E-01 -2.060449309583E-01 2.193056859842E-01 -2.396133018938E-01 -2.457057311800E-01 2.583027363957E-01 3.424188600834E-01 5.760396571765E-01 -7.233358416630E-01 -1.202714452707E-01 4.942446286258E-02 6.292620322548E-02 4.100629534909E-02 -4.103465520785E-02 1.656939970512E-02 1.742692639310E-01 7.558276065308E-02 -1.222887608699E-01 1.147838672745E+00 2.914285533914E-02 -3.475605567423E-01 1.119313117904E-01 2.036399766227E-01 1.274898428133E-01 2.048387711999E-01 4.372188729829E-01 -1.011389915843E+01 -1.057340874528E-01 2.761982471137E+00 -9.342560869965E+01 1.223180448115E-01 8.063706412031E-02 4.458890299558E+00 2.820405444812E-01 2.698275939002E-01 -8.780004132678E+01 6.094088248151E-01 -2.659866540099E+00 7.188840114060E+00 -5.127256449962E-01 4.594071973200E-01 1.113665114447E+01 -2.312111848996E+00 -4.087659637762E+00 2.060389932230E+02
 6.374891488393E-01 1.013306665932E+00 1.318922642006E-01 -1.229772476838E+03 4.485019406765E+02 -1.477899962431E+00 2.608607346808E+00 -4.047855497722E-01 -3.362448232301E-01 -8.198853839606E-01 -1.571873910891E+00 -1.363460070656E-01 1.114456232139E+01 -1.545227650402E-01 9.422841568362E-01 3.913556701268E+01 -3.113427864307E-02 -7.196758374705E-02 -2.242302323659E+00 -2.419748308406E-01 -1.254449598935E-01 -1.824944228535E+01 3.200348618291E+01 7.374358920074E-02 -1.919843438044E-01 1.566059604359E+00 5.101926308218E-01 -3.134810057095E+00 5.996642335881E+00 -3.175969535380E-02 2.777406822140E-01 -2.576547401939E+00 -7.338178064675E-01 -2.129173435374E+00 -1.877134136256E+00 -4.121724387002E-02 -1.071552125965E-01 2.770837902421E-01 1.815673249893E-01 -1.130943285003E+03 -3.897241422241E+02 9.857586810167E-03 8.545487634533E+00 5.508652755256E+00 1.360691392042E+00 3.776015939344E+01 -7.313489866199E-01 2.607246681022E-01 -2.700060026217E+01 -2.678543426408E+01 -6.418961137487E-01 2.712686412897E+03
 4.699901902741E-01 3.820842385933E-02 -7.831844524836E-03 4.543569483802E+02 -7.382412352714E+02 1.834668422926E+00 2.030838639532E+00 -2.405470710414E+00 4.161761097487E-02 5.142810785624E-01 1.822467486985E-01 6.222037590046E-02 5.115341255163E-02 -3.835504127057E+00 -4.605906997289E-01 6.671354986593E+01 -4.663119675215E-01 2.759509560237E-02 -7.854149580269E-01 -7.446337304263E-03 1.644118784087E-02 -3.561940980673E+01 5.896263009377E+01 -1.141480781166E-01 -7.716617821085E+00 5.391419772414E+00 2.180995931361E-01 -1.407828675616E+00 2.342651837181E-01 -7.548565083472E-02 -3.235463526846E+00 5.308565086464E+00 3.180129875752E-02 7.512435585164E+00 -4.344075904109E-01 -9.094621249789E-01 2.868940202801E-01 1.231324020672E+00 -7.296428634812E-04 -3.837138266249E+02 -6.766714625388E+02 1.376708867250E+00 1.989003748083E+01 5.972213043945E-01 8.176569364225E-02 -6.639333133691E+01 -7.045070058999E-01 5.811669475993E-02 3.034940142783E+01 6.353353637105E+01 5.046817311528E-01 -4.468115024574E+01 2.825521546701E+03
 4.113283477441E-02 4.593672331436E-02 4.445905391428E+00 -1.665603762532E+00 1.851156928782E+00 -8.234721471239E+01 -2.834751195692E-01 -1.215776841552E-01 2.685758174673E-01 -1.117496094381E-01 1.088010115532E-02 4.691660837811E+00 5.487501038939E-01 2.978748147750E-01 -2.292735530285E-01 -1.137226988508E-01 -1.901026889270E-02 8.552782070727E+00 2.763440257747E-02 1.661379821536E-02 6.240391137167E-02 2.551346553708E-01 -1.137269473888E-01 9.767382093416E+00 5.258236239172E-01 -2.002779418738E-01 -6.275371613372E-01 -1.324317066173E-01 9.946919128890E-02 2.808199032808E-01 -8.396326083488E-02 -1.978722498385E-01 5.289059878064E+00 -1.638455959947E-01 9.520967375987E-01 5.750095067384E+00 1.430684788487E-02 -3.409667783072E-02 -9.103060186010E+00 1.155065045365E+00 9.088030798415E-01 -7.713435164451E+01 1.429676083281E-02 -7.015857976498E-01 -1.224531075092E+00 1.551504526613E-01 3.754864474433E-01 8.173378365169E+00 -5.505765508110E-01 -3.595542124718E-01 7.940888281844E+00 5.521661510287E-01 -6.800402668432E+00 1.870090310262E+02