#BIOSYM hessian 1
@Type: Hessian Update
@Units
 distance: 	A
 energy: 	Kcal/Mol
#header
@natom 66

#label
C1      C2      C3      C4      C5      C6      C7      C8      C9      C10     C11     C12     C13     C14     C15     C16     C17     C18     C19     C20     C21     C22     C23     H24     C25     C26     C27     C28     C29     C30     C31     C32     C33     C34     C35     C36     C37     C38     C39     C40     C41     C42     C43     C44     C45     C46     C47     C48     C49     H50     H51     H52     H53     H54     H55     H56     H57     H58     H59     H60     H61     H62     H63     H64     H65     H66

#element
C  C  C  C  C  C  C  C  C  C  C  C  C  C  C  C  C  C  C  C  C  C  C  H  C  C  C  C  C  C  C  C  C  C  C  C  C  C  C  C  C  C  C  C  C  C  C  C  C  H  H  H  H  H  H  H  H  H  H  H  H  H  H  H  H  H 

#matrix
198
 2.779298951783E+03
 -1.657582924841E+01 2.806957106435E+03
 7.681295164594E-01 -1.327288613918E+01 1.917608402159E+02
 3.972008964085E+01 6.663009704274E+01 -3.965066006281E-01 2.795878679633E+03
 -3.857338094597E-01 -9.094118057195E-01 6.937207740104E-02 -2.102181821800E+01 2.768940889565E+03
 8.388923088771E-02 6.974811292359E-02 8.340320334258E+00 1.148010185872E-01 -1.357465353225E+01 1.908951992885E+02
 -1.157954299435E+01 3.233502028179E+01 -4.090688514120E-01 -3.469048690843E+00 1.311081435743E+00 -1.541953326294E-01 2.815286097934E+03
 -2.965557227805E+01 5.991209019428E+01 -4.523268962208E-01 -3.354973460159E+00 1.940309836679E+00 -1.461162183830E-01 -1.975563367097E+01 2.726680554603E+03
 -5.299931742300E-01 -6.525041474980E-02 8.591898928243E+00 2.800639164824E-01 5.318971180473E-03 7.230132424667E-03 1.990073246711E+00 -1.282545573510E+01 2.029524604920E+02
 3.610301041660E+01 -6.594895806295E+01 3.886546196374E-01 -1.979506345414E+01 3.674237849640E+01 -2.188772744102E-01 4.083187170278E+01 6.131257644514E+01 -3.689783387285E-01 2.806345235513E+03
 -4.595552508558E+00 1.703060476240E+00 9.440147653749E-02 -3.154661757489E+01 6.053310760222E+01 -2.392738381248E-01 4.292791811630E+00 -3.216809609504E+00 -4.040131611271E-01 -3.907321370017E+00 2.783054732939E+03
 2.903123117152E-02 2.569951922222E-02 9.023277002606E+00 1.409863300633E-01 -2.803587564319E-01 8.911132769668E+00 4.481921053504E-02 4.768707359407E-02 9.596133845408E+00 6.188718537657E-02 -1.402090569633E+01 1.935836514220E+02
 -2.266105289061E+00 1.184088077290E+00 4.781832969776E-02 -6.636454060126E-01 2.541889596269E+00 -2.076091222316E-02 4.379948887702E+01 -9.358295535180E+01 9.475511716896E-02 -2.986904100207E+01 2.739782360957E+01 -2.497934181192E-01 2.610727042836E+03
 4.719505817005E+00 -2.260835124128E+00 -1.562589702511E-01 9.570136310516E-01 -3.562674519242E+00 -1.114622851688E-02 4.851888933989E+00 1.389886594651E+01 1.177896447534E+00 -2.018964119322E+01 7.838119655428E+01 -2.414121900994E-01 -1.588425435215E+02 3.015411920001E+03
 1.385921688399E-01 7.097956987372E-02 6.642710735714E-02 -1.273841146920E-01 1.346708163706E-02 -9.233427815267E-04 -8.221887095703E-02 -1.277232319768E-01 1.111576070962E+01 -5.310022968671E-02 -2.852572026723E-01 1.097638060000E+01 8.772784004926E-01 -1.651589200715E+01 1.702708935159E+02
 -1.218852458375E+03 4.401517254627E+02 -2.474488266930E+00 -4.635632331923E+02 -1.220588341935E+01 -1.710548172454E-01 -6.623262702706E+00 -4.848947748796E+00 8.812315133331E-01 -3.759324984999E-01 1.192769486870E+00 2.626201303355E-02 1.912130824150E-01 -1.377484177397E+00 -1.665860412852E-01 2.814966460715E+03
 4.341601228063E+02 -7.326478293362E+02 3.269385774031E+00 -1.101655297488E+01 -1.430091091134E+03 6.913643598722E+00 2.087527729820E-02 -2.328651957860E+00 1.164785007619E-01 -2.720139453363E+00 -1.607522182107E+00 -8.125870744342E-02 -3.533282528802E+00 5.230504646647E+00 -1.271358156665E-01 1.222525865755E+01 2.772467167639E+03
 -2.424386401295E+00 3.383592332975E+00 -8.263101462332E+01 6.073873015880E-02 6.871678937989E+00 -8.059014700211E+01 4.983916530442E-02 7.347045956478E-02 4.745616910294E+00 -5.658137415692E-03 -5.119189315350E-02 -8.982436087051E+00 -4.040902412051E-02 1.260049358706E-01 -3.736707468223E-02 7.543321461934E-01 -1.280778094390E+01 1.917111893168E+02
 -1.200480634265E+03 -4.135463012973E+02 1.803586798605E+00 6.724523289941E-01 -4.494833573653E-01 -3.234030408071E-03 -1.235113592344E+03 4.435089349956E+02 -2.664341024792E+00 -4.745983694697E+02 -1.179276314461E+01 -8.801962732028E-02 -6.785215970937E-01 -2.561108266313E-02 1.066876557591E-01 -1.922923888038E+01 -3.165292571358E+01 1.829099261499E-01 2.794386703660E+03
 -4.067569231081E+02 -6.975594774261E+02 3.032160485768E+00 -1.391158357466E+00 -2.116062223194E+00 -6.031230311471E-02 4.441288743617E+02 -7.365369482193E+02 3.890063479313E+00 -6.526654873088E+00 -1.446959333944E+03 7.395690905589E+00 1.464147055065E+01 -2.016413497538E+01 -2.013881004722E-01 3.365178201294E+01 6.086548851794E+01 -2.307368093405E-01 -1.844380359362E+01 2.759344572872E+03
 2.123186440551E+00 2.874506211599E+00 -8.066058698931E+01 -1.053017808245E-01 -9.930896821809E-02 -8.933409833579E+00 -3.170109989602E+00 3.158155825251E+00 -8.646601987162E+01 9.262459608682E-02 7.709565283343E+00 -8.279489572634E+01 2.907506781009E-01 -8.590438635907E-01 -1.014579064990E+01 -5.858316122733E-01 -2.386225164257E-01 8.574557699961E+00 7.385470235015E-01 -1.392600603847E+01 1.940373071111E+02
 -5.429771185323E-01 1.457445469423E-02 1.030305688525E-01 -1.225795936118E+03 -4.194327876731E+02 2.209076796577E+00 3.359627026535E+00 3.186596968041E+00 -4.418953260620E-01 -1.213940759294E+03 4.381143447441E+02 -2.333049282072E+00 1.909519526965E+00 -2.284842726673E+00 1.889983208812E-01 3.875762173951E+01 -3.740800071727E-01 -6.094164115349E-02 3.940792836652E+01 -7.244634582197E-01 1.787755972848E-01 2.802919947522E+03
 -1.599973066458E-01 3.605130470755E-02 -1.633734933441E-02 -4.221571827651E+02 -7.027054956406E+02 3.344917583853E+00 6.424697216717E-01 1.038750753445E+00 -1.416067376494E-01 4.399200158496E+02 -7.362951764978E+02 3.582926164108E+00 -2.660729729842E-01 2.955857918207E-01 9.431025104306E-02 -6.656588574674E+01 4.360047056612E-01 4.380472671491E-02 6.762403362999E+01 -4.485344115439E-02 1.209814611840E-01 3.780304633279E+00 2.796904374473E+03
 -2.081401567280E-02 -5.949104836941E-02 -8.920807428050E+00 2.296511570912E+00 3.306120870853E+00 -8.196538073269E+01 -5.452873621972E-02 -2.645072879421E-02 4.575333121738E+00 -2.344273161058E+00 3.651791017841E+00 -8.299862187866E+01 1.838161765768E-02 -2.575586136272E-02 4.858199661077E+00 3.025904858897E-01 7.325568076878E-02 8.623385383753E+00 -3.459184713906E-01 7.374557805545E-03 9.023658338895E+00 6.965891431793E-02 -1.485494703569E+01 1.938108152123E+02
 -1.013857954822E+01 4.148974819278E+00 1.928263239680E-01 -2.122453136883E-01 3.567327603396E+00 8.143193274834E-02 -1.252562023545E+03 -4.419456804347E+02 9.189009319841E-01 -2.090088796619E+01 -2.333776934848E+01 -2.777487703967E-03 -6.243238437009E+02 5.799366774618E+01 -4.516987057647E-01 5.544892124692E+00 -6.734928247679E+00 -8.330014350316E-02 -2.081429629186E+01 -7.841326926039E+00 7.931826728418E-01 1.131033796566E+00 -1.562896733210E-01 5.837270446828E-02 3.145256812446E+03
 -5.521437132915E+00 -1.224712496429E+00 3.315756781201E-01 4.690327717885E+00 -2.929315647315E+00 2.260559755122E-01 -4.053884067497E+02 -7.330591334439E+02 1.470641886330E+00 1.105052528474E+01 2.423514237133E+00 1.391901535247E-02 9.456197576906E+00 -1.839704549213E+03 1.054764551974E+01 7.412305410455E+00 3.043914417743E+00 -1.157274731370E-01 3.438570575450E+01 5.749100648861E+01 7.657474021366E-01 -4.414186028076E+00 -1.278415430537E+00 9.071998794497E-02 -1.285625914537E+02 3.331038081040E+03
 -6.325855101867E-01 6.998476829636E-03 4.442127141133E+00 2.645247523301E-01 3.431609914147E-02 4.224814582902E-03 2.805319550699E+00 3.895778437110E+00 -9.032632153935E+01 2.786775321776E-01 -7.766289789862E-01 -1.031137314931E+01 -3.362165372014E-01 1.192436001845E+01 -9.168173585333E+01 7.240401568318E-01 1.171331241087E-01 9.320389647749E-02 -2.914811487907E-01 6.520623806205E-01 9.503389891570E+00 -3.649833296235E-01 -1.284242434051E-01 -5.208675165976E-02 5.618168368786E-01 -2.020702911298E+01 2.151932465710E+02
 6.633637617511E+00 -2.569159340846E+00 -1.299787488859E-01 -2.673601060175E-01 -2.964463794227E+00 -5.650935410000E-03 -6.606879989604E+00 1.093008014314E+01 8.568030106829E-01 -1.225438211681E+03 -4.142997257558E+02 2.380052226378E+00 -1.241317062177E+03 4.230121678322E+02 -2.192562841950E+00 -1.904069297535E+00 4.898314375821E+00 6.716728938371E-02 3.973446705858E+01 -2.219241661148E+01 -4.887458405347E-01 -2.109693970718E+01 -3.362329950528E+01 1.408816106927E-01 1.055301539404E+02 -1.659011889432E+01 3.795124620446E-01 2.820018473603E+03
 -3.997354191003E+00 2.169787163143E+00 5.787356519305E-02 -5.540839473956E-01 2.125815318286E+00 1.620752976050E-02 7.673417467274E-01 -6.986191619467E+00 -3.649776887372E-01 -4.402463747490E+02 -7.297188006383E+02 3.349310223221E+00 4.337137739862E+02 -7.679477386601E+02 3.816632540592E+00 6.213453748112E-01 -3.842636132970E+00 -6.914795832494E-02 -6.840450326442E+01 1.470669010879E+01 3.306552754495E-01 3.626536591760E+01 6.021023116965E+01 -2.743532565609E-01 4.985096902171E+01 1.308423472072E+01 -5.636713412989E-01 -1.379178744033E+01 2.859288997307E+03
 1.015008025855E-02 2.324590951547E-02 4.440412332739E+00 -2.236839132072E-03 2.234391524093E-02 4.581793176286E+00 -6.572564983147E-02 -1.886068417190E-02 -1.030209943634E+01 2.308641476248E+00 3.383962969766E+00 -8.452194364784E+01 -2.050296887485E+00 3.716249692872E+00 -7.984026088325E+01 1.075633846272E-02 1.895517343747E-02 1.177616850322E-02 4.021778059916E-01 8.988127230103E-04 9.652801983570E+00 -1.957437022453E-01 -2.532739036576E-01 9.001328692398E+00 -4.070854397898E-01 -4.841555521106E-02 1.089619798164E+01 -6.102099823746E-02 -1.427373568689E+01 1.866933858212E+02
 9.170007662456E+00 -8.048266465325E-01 -1.701576607108E-01 -4.046562004134E+00 8.346419445546E-01 -1.833346343404E-01 -2.918231834029E+01 -2.166439898955E+01 1.055744662926E+00 2.697458430904E-01 7.798724435746E+00 -4.847601047062E-02 -1.201578463770E+00 1.340325169539E+00 -1.453423864671E-01 -7.482098862309E+00 1.433634261951E-01 1.605923999326E-02 8.402156960653E-01 -8.062294773665E+00 -3.522394579347E-01 3.452822975226E+00 1.061139895876E+00 -4.281054592985E-02 9.820662859021E+00 3.139809932085E+01 8.113416529757E-01 -7.711289970346E+00 2.363796764278E+00 -8.441217389203E-02 2.720757531213E+03
 -2.764793916034E+00 -1.889998717809E+00 2.285079310546E-01 4.384080165309E+00 -4.425133888577E+00 1.881928662746E-01 2.759860434019E+01 3.299262568820E+01 -1.822519854919E+00 1.459691387092E+01 9.522811628438E+00 1.558588352893E-02 2.667995238993E+01 -3.993406652324E+01 6.271457552704E-01 5.835460338761E+00 5.059061566251E+00 -2.499314031198E-02 -2.852439317679E-01 -1.334952407069E+01 7.195994626947E-01 -5.115964814647E+00 -5.259787063145E-01 8.042037654484E-02 4.130429340798E+01 -4.817335550623E+01 -1.221056650459E+00 -3.034868754818E+01 2.416415379983E+01 -8.297907501658E-02 -6.009155256687E+00 2.736042033433E+03
 1.441243831153E-01 -5.859715553171E-02 2.398386348021E-02 -1.391475750413E-01 7.088833571526E-02 -8.423311885267E-04 -5.551050647319E-01 -4.929437690384E-01 -2.115994878816E-01 -8.117906963123E-02 1.241666865425E-01 -1.101369880946E-02 -6.544268544929E-02 -5.735313044470E-02 6.766742040869E-02 -1.550464772971E-01 3.147652333923E-02 4.509483420956E+00 3.198463768865E-02 -4.963847604318E-02 1.315811171492E-01 1.179150213531E-01 1.086665831773E-02 1.865885306851E-02 1.139862868154E-01 8.182953299464E-01 -1.934294691179E-01 -3.557195387935E-02 -4.347920238193E-02 -2.091135391558E-02 -1.181707689196E+00 -8.623747848442E+00 1.697403675434E+02
 -8.102937406199E+00 2.703498218814E+00 1.448511109263E-01 6.583159592678E-01 3.138289200538E+00 3.105204256049E-02 1.027849873929E+01 -6.321467646023E+00 -8.124129103400E-01 -1.439142348692E+01 -1.931566782496E+01 -3.419110055679E-02 -2.299773408420E+01 3.680339307925E+01 -6.803912765422E-02 3.979955969800E+00 -5.278205375246E+00 -8.828210794512E-02 -4.315651920737E-01 2.352681227005E+01 5.083557642687E-01 8.853896386168E-01 -3.867641867982E-01 6.117644186108E-02 -5.368354992112E+01 8.739440961001E+00 -6.768165213557E-01 3.853704874890E+01 -2.641222598317E+01 1.106640318052E-01 5.911157870596E+01 9.896183147976E+01 1.511893402593E-01 2.712960150795E+03
 -7.377580162725E+00 2.958087042657E+00 1.980611361355E-01 -4.720217191186E-01 3.883697287564E+00 3.108657893973E-02 2.734864138997E+00 -1.336971868925E+01 -1.310691964650E+00 -1.716863160370E+01 -2.109469056050E+01 -4.492012057979E-02 -2.958804484640E+01 4.714352794579E+01 8.348560148629E-02 3.284526791755E+00 -6.085748074934E+00 -1.281173778224E-01 -3.669059405290E-01 2.550237643922E+01 8.272829922810E-01 2.003719249364E+00 -3.980885351976E-01 7.184337012915E-02 -6.450106022600E+01 1.905850141319E+01 -1.257097947654E+00 4.446556162223E+01 -3.057831755225E+01 8.297294288635E-02 5.890994600267E+00 3.972047677504E+01 4.611062930471E-01 2.271133755546E+02 2.796489507902E+03
 2.568763778366E-01 -8.279275970279E-02 4.412734700534E-02 -1.131627911499E-01 -4.126672105600E-02 -3.611471209257E-03 -5.424176372539E-01 -2.984092544968E-01 -4.639505550040E-01 1.477210218215E-01 3.583382007453E-01 -2.823148898285E-02 3.164209676245E-01 -6.651131774106E-01 1.426880575230E-01 -2.365520520376E-01 6.976777041376E-02 -1.445168128914E-01 2.537875231415E-02 -3.503700372485E-01 2.682139585281E-01 9.287878735110E-02 4.697411377227E-02 8.469302783957E-02 8.584924966495E-01 5.817273886914E-01 -3.976078134643E-01 -5.986179492521E-01 3.524130887994E-01 -3.678480814425E-02 -1.745922346822E-01 2.953780430416E-01 1.182551661836E+01 -2.641605115939E+00 -1.136992255622E+01 1.259847665838E+02
 -2.088563408067E+01 -3.453139985549E+01 1.519891306051E-01 3.932983697112E+01 -9.643468469116E-01 9.572917828154E-02 4.252567982667E+00 3.531155960886E+00 -3.021700078740E-01 9.388502783478E-01 1.197049675111E-01 5.410455254367E-03 2.207081987125E+00 -2.791893945798E+00 7.021676530849E-02 -1.251506180137E+03 -4.368807764646E+02 1.668319646540E+00 1.661954021418E-01 -1.368604844701E-01 8.249086388529E-02 -5.646386719697E-01 -8.079188602526E-02 2.260489496347E-02 1.550211649730E+00 -5.443822375303E+00 -2.092836607582E-01 -1.578261656045E+00 1.352865993891E+00 -3.203533898460E-03 -1.423646421073E+01 2.745338470045E+01 -1.242874243910E-01 8.682239654126E-01 2.356518758830E+00 8.432012764417E-02 2.787021769308E+03
 3.340949898142E+01 6.083141055243E+01 -1.172986887566E-01 -6.733177925601E+01 8.410467978065E-01 5.951438297902E-02 5.743179684768E+00 3.453670192510E+00 -6.893215793311E-01 -9.401367069663E-01 -2.826288805197E+00 3.061325292939E-03 -1.363405781387E+00 2.796080744621E+00 1.990489268391E-01 -4.394520896464E+02 -7.269544346826E+02 2.793397159043E+00 -3.352907756401E-01 3.259103397281E+00 3.478153343885E-01 -5.304046257573E-01 -1.967527808429E-01 6.002073483038E-02 -6.255446294692E+00 -4.896420947883E+00 -5.787056887546E-01 4.052208066057E+00 -2.128476428552E+00 3.932023737957E-04 -2.691651464660E+01 5.500528632966E+01 -1.896799615772E-01 -5.133116848590E+00 -4.722979943358E+00 1.565225110639E-01 1.758886376190E+01 2.793256973116E+03
 -2.097462652801E-01 -2.875850897348E-01 9.731556944525E+00 3.530336313350E-01 4.014919855094E-02 9.306765182947E+00 -3.061412205949E-02 -3.837323117078E-02 9.783808368663E-02 -4.241548591121E-02 8.471037325445E-03 3.630426098571E-03 -4.784801085007E-02 8.897361491844E-02 -2.791302935631E-02 1.675929472834E+00 2.955312171346E+00 -8.335732462425E+01 3.593433307723E-02 4.473056520066E-02 4.522747834869E+00 -1.203938607085E-02 -1.088179983666E-02 4.542321551238E+00 -2.380379907700E-02 1.029532773353E-02 9.204421218048E-02 5.540149447508E-02 -5.333649945031E-02 3.996232650447E-03 4.995607706493E-02 -1.914679716025E-01 8.801143050416E+00 -3.314701238875E-02 -7.780909993560E-02 6.932471677530E-02 6.712946832090E-01 -1.213798259083E+01 1.912714759532E+02
 -8.235181822001E+00 3.128931662568E+00 1.498540142129E-01 -1.857547082581E+01 -2.801756216477E+01 1.806770101863E-01 8.059164053480E+00 -9.247618032315E+00 -1.011479704127E+00 -1.631874573594E+01 -2.108846396223E+01 -2.512113387141E-02 -2.684033717723E+01 4.211537203541E+01 -4.579906537202E-02 3.524572365903E+00 -6.377194108576E+00 -8.175218937180E-02 -5.756879959639E-01 2.549610554976E+01 6.152872686297E-01 1.336008096290E+00 -2.827346421140E-01 3.103017804983E-02 -5.954854851715E+01 1.332946683043E+01 -1.084491790565E+00 4.308588327423E+01 -2.969370516311E+01 9.163511405542E-02 4.918307722017E+01 -3.895343859787E+01 2.376416632863E-01 -6.999095726819E+01 -1.081118776634E+01 3.530958590822E-01 4.079800270704E+01 6.154980430076E+01 -3.592501812467E-01 2.712999228385E+03
 2.874871072274E+00 -8.531267230222E-01 -7.945749535191E-02 3.446167024667E+01 5.510102842519E+01 -2.896384138702E-01 -3.282672972805E+00 1.707329762764E+00 5.371524201251E-01 4.739920440693E+00 6.535117859360E+00 1.359257315395E-03 7.985155030923E+00 -1.288993579758E+01 -3.853308122292E-02 -2.537004767995E+00 1.024317239554E+00 -1.581860060539E-02 1.369273925116E-01 -7.707358559439E+00 -3.040655941363E-01 -1.281813146409E-01 2.867826223938E-01 2.352110533585E-03 1.836538847059E+01 -2.227790654456E+00 5.407877978984E-01 -1.274374691819E+01 8.551380064617E+00 -1.914614398857E-02 -7.130449466533E+00 -7.879421589643E+00 -1.645651344762E-01 -2.820689403749E+01 9.000810082841E+01 -6.678655289146E-01 -7.766483585915E-01 1.609824537159E+00 1.161124355624E-01 -1.048665338759E+01 2.762553680986E+03
 -7.033317896413E-02 1.299241421901E-02 -2.047889974765E-02 -1.185735626096E-01 -3.203631032526E-01 8.183088264435E+00 3.146392451490E-01 1.865583817697E-01 2.208401833565E-01 -4.282342184665E-02 -1.706034142209E-01 1.494800601785E-02 -1.020003896175E-01 1.765179695987E-01 -6.936847171149E-02 6.381172126648E-02 -4.901570549531E-02 -8.757277255540E+00 -2.397921166094E-02 1.533584749173E-01 -1.282304825444E-01 1.204214687312E-02 2.886234149065E-02 4.231106592486E+00 -2.875315237505E-01 -3.386834807983E-01 1.848384146390E-01 2.300522775222E-01 -6.632747334212E-02 1.857917738449E-02 3.148706177937E-01 -2.623539258414E-01 9.482308905536E+00 1.197821217900E-02 -5.688895973224E-01 1.160186454336E+01 -2.652214894902E-02 1.187944637015E-02 8.592516387714E+00 -1.342688100379E+00 -1.201942657069E+01 1.844185913010E+02
 -1.808576850203E+00 1.620741162343E-01 4.520078090625E-01 -1.239509276250E+00 1.280799016819E+00 -1.937371777004E-01 3.576861780348E+00 -4.864312423706E+00 -2.770681552743E+00 -4.451073087616E+00 -3.542125160282E+00 -4.084345935022E-01 -1.292780514947E+00 -1.921178067519E-01 9.457788589780E-01 -2.540754429645E+00 -4.676367204435E-01 -4.610525466678E-01 2.520650176500E-01 6.403696332560E+00 2.214254129644E+00 2.218133835609E+00 3.688117753591E-01 3.387125902520E-01 -1.393283792931E+01 9.552115852988E+00 -1.247660737903E+00 7.445014509618E+00 -5.802034496912E+00 -1.980361125521E-01 -1.193026684015E+03 4.615716827516E+02 -1.147591493933E+00 -4.469689471199E+02 -3.368997102374E+00 1.088559660730E-02 9.892351853309E-01 1.398924627678E+00 -1.964551024484E-01 -8.169503176470E+00 6.401795829277E+00 -3.457407255269E-01 2.214669541010E+03
 5.764090511061E+00 -1.011949966967E+00 -1.425396802861E-02 -1.833702411518E+00 -3.831720946848E-01 -2.093891147409E-01 -1.499669836368E+01 -6.677932495930E+00 4.378056133878E-01 4.973090969696E+00 1.089138910661E+01 -1.904967645462E-01 9.134758763967E+00 -1.704545475969E+01 1.886803349390E-01 -6.842685773027E+00 1.884235061920E+00 -1.186128057107E-01 1.899489797940E-01 -1.190900617525E+01 1.978119668728E-01 1.527523867167E+00 5.825923316693E-01 8.825782355805E-02 2.245355667391E+01 1.189199420148E+01 9.198321493240E-01 -1.771064195684E+01 1.071668534197E+01 -1.204249265223E-01 4.697636253998E+02 -7.057532023935E+02 1.537742844555E+00 -2.078916611000E+01 -1.508080772513E+03 5.749661447895E+00 9.322098858881E-01 5.710733130682E+00 -4.633630761636E-02 2.414466579219E+01 -7.213091436440E+00 1.220133920286E-01 -2.062991213383E+02 2.464251673530E+03
 -2.031679910807E-01 -7.505414491741E-02 1.130417637577E-01 5.096321223764E-02 7.323781976854E-02 1.382675146521E-02 6.047393145921E-01 2.441257046005E-02 -3.687869598923E-01 -2.858190648913E-01 -3.544347242685E-01 3.587702844228E-02 -2.190931408492E-01 -1.856929911763E-01 8.511393375216E-02 -2.409341801474E-01 -1.022387705849E-01 1.213034003787E+00 1.241107457356E-02 6.201919357796E-01 3.272897144145E-01 1.587396865183E-01 -2.517006058910E-03 -7.417450213301E-01 -1.049603395098E+00 2.716202120973E-01 -6.119003179002E-01 7.092192209327E-01 -4.181124180113E-01 5.666685799023E-02 -1.231767432933E+00 2.248734852917E+00 -6.799421244038E+01 -8.334366908346E-01 5.620079813113E+00 -6.533645657971E+01 1.201085959451E-02 2.692026421047E-01 3.452598283317E+00 -4.093573210969E-01 6.072613689600E-01 -6.081792898311E+00 2.372882330833E+00 -8.122147867334E+00 1.933816369868E+02
 -3.110544651604E+00 2.256469922061E-01 1.294569923112E-01 2.375114582782E-01 -7.985607600602E-02 8.777363866344E-02 8.116932441606E+00 4.148507317291E+00 -8.479226427640E-01 -1.864060184279E+00 -4.374128103079E+00 5.166322144343E-03 -2.422062854527E+00 4.838422869223E+00 1.735992098722E-01 -1.652350961096E+01 3.506494233471E+01 -1.908827653317E-01 -5.551314095803E-02 5.015229821573E+00 4.162233341678E-01 -6.598842483247E-01 -3.778800583697E-01 4.875375771536E-02 -9.547724995150E+00 -6.424312610683E+00 -6.827039958912E-01 6.425029856929E+00 -3.660470944076E+00 8.339690071037E-03 -1.212837853312E+03 -4.242764133554E+02 2.135388230301E+00 -7.304900621451E+00 -7.575072521326E+00 3.112747235403E-01 -1.181000621016E+03 4.234555482736E+02 -2.197934815939E+00 -4.744117373397E+02 -1.183442987257E+01 -4.121069418293E-02 -1.901712273590E+01 -2.786005754871E+01 1.045501437929E-01 2.752761877961E+03
 -3.782216254353E+00 1.412356183479E+00 5.254806378173E-02 -6.526115660931E-01 2.424694056994E+00 -1.010979390904E-01 2.132542961350E+00 -5.965954139414E+00 -5.535814845447E-02 -8.605019135984E+00 -1.024658251141E+01 -1.166793587479E-02 -1.432098945294E+01 2.165821818271E+01 -1.570737819413E-01 -3.111238795402E+01 5.589651681819E+01 -2.286115086862E-01 -2.383408535265E-01 1.266300978822E+01 1.031653859041E-01 8.734695379010E-01 -3.527834039892E-01 -9.736871752249E-03 -2.958746491543E+01 8.723577265521E+00 -1.765145375740E-01 2.193910292928E+01 -1.528119776994E+01 6.691149867412E-02 -4.226449282110E+02 -6.894707768011E+02 2.957083901509E+00 -2.157806971575E+01 -2.623611274095E+01 5.017874801297E-01 4.287154099110E+02 -7.177373509506E+02 2.989484313654E+00 -3.276323647446E+01 -1.485893442285E+03 6.360148509264E+00 2.742133985118E+01 6.820094436263E+01 -1.223727496596E+00 5.181464136361E-01 2.785919935805E+03
 -2.089521915186E-02 4.825606042782E-02 4.539451437417E+00 1.527429651457E-02 -3.385322323575E-03 -8.878047508348E+00 5.916589714029E-02 1.362875421924E-01 -6.990323228668E-03 6.040151694507E-02 4.652303395464E-02 -1.306402694916E-02 6.338637378147E-02 2.619040812745E-03 5.840660304732E-03 2.891322516674E-01 -2.226818373927E-01 8.636046290922E+00 9.938309419434E-03 -9.280099202240E-02 -2.460188140529E-02 -6.034429810555E-02 -2.429911229289E-02 1.799761176526E-01 1.758741151014E-01 -2.535715339201E-01 6.190392330030E-02 -1.184768493109E-01 9.193474857387E-02 -1.585626609961E-02 1.938074051687E+00 2.160189194538E+00 -7.804335501889E+01 3.127528975263E-02 -7.354697867669E-02 -8.760258498910E+00 -2.203672139526E+00 2.969949557905E+00 -8.028672851791E+01 3.811440465412E-01 6.434415267364E+00 -8.250342254972E+01 -3.023230469281E-03 8.670880030315E-02 -7.462788570577E+00 1.337453639785E-01 -1.181512549761E+01 1.910559150225E+02
 1.320060157371E+01 -4.125606712540E+00 -2.834013414401E-01 -1.402557759315E+00 -4.152898900897E+00 -1.236121140227E-01 -1.795365807075E+01 6.585697216922E+00 1.890102876364E+00 2.143689349152E+01 2.997047939615E+01 1.962727496906E-02 3.528632490922E+01 -5.668430802500E+01 -7.467526755664E-02 -7.140814641439E+00 7.733790132486E+00 1.525098573819E-01 8.649073592995E-01 -3.570825046380E+01 -1.037050014312E+00 -8.115605930616E-01 7.492782312407E-01 -8.590303771372E-02 8.299176681339E+01 -8.978117674372E+00 1.797275499375E+00 -5.868712818440E+01 3.943697835761E+01 -1.418641449399E-01 -2.117649521398E+01 -3.446709792938E+01 -1.193739989987E-01 -1.449548895509E+03 -4.675256462202E+02 2.694571912694E+00 -8.857282114730E-01 8.820676647769E+00 5.737011501526E-02 -1.192282839825E+03 4.127684237582E+02 -1.037368199671E+00 5.450536798270E+01 -3.631794516673E+01 5.609370242167E-01 5.311210020922E+01 3.447387296926E+01 -2.603355746692E-01 2.968299626231E+03
 9.913042139019E-01 -7.187686995007E-01 1.184593480355E-03 4.723595244267E-01 -1.028869461649E+00 4.089950106691E-02 1.464802553500E+00 5.507771021221E+00 -2.467923389447E-02 4.616591364569E+00 4.710389156400E+00 7.223928662524E-03 7.370345494984E+00 -1.104591840558E+01 7.142935248860E-02 4.417910729110E-01 1.613842102122E+00 4.981697581320E-03 5.051547473714E-02 -6.176140522481E+00 -3.268195228167E-02 -9.176585492859E-01 -7.233667765172E-02 1.107152068388E-02 1.395814754003E+01 -8.177011769118E+00 7.889369846595E-02 -1.099765801649E+01 8.145962961984E+00 -2.101377739700E-02 2.248806024221E+00 -1.321300888121E+01 -1.089149690655E-01 -5.352232933609E+02 -8.504225432587E+02 3.884263915022E+00 -1.116294633145E+00 3.697431026820E-01 4.375650668346E-02 4.321897168391E+02 -7.430870992285E+02 2.948335135018E+00 -8.136954086838E+01 8.833018227635E-01 4.732740471126E-01 7.275199317766E+01 6.727746028787E+00 -4.316843320607E-02 8.655423396052E+01 2.549188320554E+03
 2.550934077122E-01 -6.556734365721E-03 -7.331839094849E-03 -1.036366312970E-01 2.584534674764E-02 4.625542456328E+00 -7.259477823681E-01 -5.622852994326E-01 -6.460330799971E-02 -6.639070930126E-03 1.963613857605E-01 -1.287538459087E-02 -2.282148549803E-03 -1.227195037237E-02 2.720089663962E-02 -1.988383270335E-01 -1.362665602438E-02 -2.245759908834E-01 2.100086393830E-02 -1.933437908692E-01 2.418984515676E-02 8.773298241913E-02 4.091824286457E-02 1.351085271091E-01 4.422875624128E-01 8.293929622896E-01 -2.007631916806E-02 -1.901193640918E-01 2.966755104434E-02 -2.517056796338E-02 -8.480377801416E-01 5.938296758435E-01 -1.027096116661E+01 3.792497336752E+00 4.166668378698E+00 -6.414167381918E+01 1.148022523090E-01 1.881614146990E-01 4.774996553808E+00 -9.774817744360E-01 2.778099916978E+00 -7.707017980021E+01 -2.739670431916E-01 -8.277227481748E-01 -9.550722534400E-01 -1.133715302338E-01 -3.232056636964E-03 1.319138640289E+01 -3.044987385994E+00 -1.128332048023E+01 1.492504426949E+02
 3.820231821253E+00 -1.635972525286E+00 -5.311832085920E-02 -1.227542768738E+03 4.474487452748E+02 -2.223965005459E+00 -2.610836608557E+00 5.918122067807E+00 2.237800887654E-01 8.522592337691E+00 1.076935103569E+01 8.108070120044E-03 1.422061605490E+01 -2.183755874008E+01 1.290918178936E-01 3.843708727801E+01 2.420399157413E+00 1.842071236898E-02 3.505134274989E-01 -1.296500562794E+01 -1.830167354357E-01 -2.100302294288E+01 3.634030637479E+01 -2.114874494033E-01 2.990170878581E+01 -8.400295038009E+00 3.536142366129E-01 -2.212698241757E+01 1.532684971084E+01 -5.269933013285E-02 -4.534568032445E+00 -1.754455444267E+01 1.521375936341E-03 2.348812065390E+01 2.664023631868E+01 -2.993642271954E-01 -8.636634701404E-01 2.488329380860E+00 7.425201095147E-02 -1.125380388662E+03 -4.033733084953E+02 2.282959309506E+00 6.873070206009E+00 -9.893886342910E+00 6.255340468667E-01 4.111036955585E+01 1.286614374243E+01 -1.721947270671E-01 -5.344856980374E+01 -3.887618432185E+01 1.264370173157E-03 2.731356065945E+03
 6.475977418258E+00 -1.837952917666E+00 -1.208756713386E-01 4.562325456717E+02 -7.508903997345E+02 3.587822751257E+00 -1.192633364120E+01 -5.168278203409E-01 1.069494282312E+00 8.416176979032E+00 1.282498757537E+01 4.259838902665E-02 1.333596346021E+01 -2.195498803257E+01 -1.110409260930E-01 6.348368785133E+01 2.983829588821E+00 1.018392749835E-01 4.412464060481E-01 -1.521558393492E+01 -5.252719135765E-01 -3.278128211275E+01 5.996401941045E+01 -2.820116193006E-01 3.465530944123E+01 8.589142390468E-01 9.481888106686E-01 -2.422836258615E+01 1.617615150287E+01 -5.994383636690E-02 -1.470467403751E+01 -9.539718700777E+00 -2.721234742268E-01 2.721546631546E+01 2.864604274277E+01 -5.754302516788E-01 8.338874782384E-01 4.289125968105E+00 -4.258135349170E-02 -3.645198611307E+02 -6.770135783954E+02 3.500764146465E+00 4.155129460407E+00 -1.588839945975E+01 5.808636339245E-01 -5.903078737546E+01 1.409773345900E+01 -4.504033154814E-04 -1.019724410302E+01 5.159303561620E+01 -6.220881751666E-01 -1.858670288767E+01 2.784830754030E+03
 7.802138344445E-03 3.371950029325E-02 4.649897766190E+00 -2.452075303500E+00 3.789655339405E+00 -8.298473255530E+01 -9.726433185854E-02 -1.320539540844E-01 -1.758714553153E-01 -2.655912628133E-02 4.899066141413E-02 4.667671457344E+00 -2.308034953278E-02 -5.947866012164E-02 4.908746695673E-02 -3.417727722292E-01 -9.746424201448E-04 9.085171851247E+00 5.317385610931E-03 1.670996573570E-02 1.124707654668E-01 2.061666856300E-01 -2.749420909443E-01 9.514241251796E+00 -6.397165196769E-02 2.784503702070E-01 -1.686834908564E-01 3.891849692740E-02 -4.553263133651E-02 -4.914007675444E-03 2.949005586616E-02 3.354659261863E-01 4.268492080679E+00 -1.616460873886E-02 1.096113277892E-01 5.120367031958E+00 -6.895961503133E-02 -4.376347685276E-02 -8.965590621316E+00 2.337565016711E+00 3.127683484578E+00 -7.975842779455E+01 5.859603230973E-01 1.277105634140E-01 2.919528478939E+00 3.206196651332E-01 1.048426935282E-01 7.423110371248E+00 -7.573193372571E-02 -1.589282142981E-01 9.034835523019E+00 -2.499448461386E-01 -1.616909481926E+01 1.863591101728E+02