#BIOSYM hessian 1
@Type: Hessian Update
@Units
 distance: 	A
 energy: 	Kcal/Mol
#header
@natom 66

#label
C1      C2      C3      C4      C5      C6      C7      C8      C9      C10     C11     C12     C13     C14     C15     C16     C17     C18     C19     C20     C21     C22     C23     H24     C25     C26     C27     C28     C29     C30     C31     C32     C33     C34     C35     C36     C37     C38     C39     C40     C41     C42     C43     C44     C45     C46     C47     C48     C49     H50     H51     H52     H53     H54     H55     H56     H57     H58     H59     H60     H61     H62     H63     H64     H65     H66

#element
C  C  C  C  C  C  C  C  C  C  C  C  C  C  C  C  C  C  C  C  C  C  C  H  C  C  C  C  C  C  C  C  C  C  C  C  C  C  C  C  C  C  C  C  C  C  C  C  C  H  H  H  H  H  H  H  H  H  H  H  H  H  H  H  H  H 

#matrix
198
 2.825681330130E+03
 -5.963103396514E+00 2.801231868770E+03
 1.729650055473E+01 -4.075261124160E+00 1.943234977194E+02
 3.855852364057E+01 6.575927234778E+01 -2.360878595384E-01 2.827587107409E+03
 -2.408885547361E+00 5.344780852148E-02 -2.035843874074E-01 1.319044915671E+02 2.654891690694E+03
 6.813133625101E-02 3.455561936619E-01 1.037017635807E+01 3.982041126108E+01 -1.291152740886E+01 1.804270571538E+02
 -1.914339953496E+01 3.521561855746E+01 1.007138381579E-02 2.527270920949E+00 8.442298309110E+00 1.062676992240E-01 2.835657851529E+03
 -3.342745892558E+01 6.065068329913E+01 -5.474101719091E-02 1.166363245940E+00 3.926630204103E+00 1.174419919482E-01 1.954375209184E+00 2.834462290691E+03
 -1.695154684912E-01 2.750678414853E-01 9.518641553137E+00 -1.305863308369E-02 -4.272796572166E-02 -6.562652613744E-03 1.558913685445E+01 8.270885410597E+00 1.963661138677E+02
 3.840273255456E+01 -6.986595901987E+01 -1.286189814304E-01 -2.381165567015E+01 3.501581692571E+01 -3.636709943801E-01 4.127694445272E+01 6.962697116317E+01 3.917949572419E-01 2.929547165375E+03
 -2.640379651972E+00 2.546521667704E+00 -1.887835882569E-01 -4.660893005588E+01 4.208726363705E+01 -1.985169671676E+00 1.136957248194E+01 4.745328255784E+00 -1.096912688363E-01 -3.833815060691E+01 2.775849628538E+03
 1.514553112959E-01 -4.161655426806E-01 9.768796218845E+00 -3.601030504874E-01 1.115217955541E+00 1.186265641550E+01 3.222309000829E-01 4.534896359681E-01 9.072173674982E+00 2.675622113134E+01 6.321595921217E+00 1.798320903107E+02
 -8.687362445522E-01 6.453756320959E-01 -9.595268801717E-02 -3.479890939148E+00 -1.170343458406E+01 -1.442253033766E-01 4.260764905114E+01 -6.934100258063E+01 -2.879154726196E-01 -2.466165170982E+01 2.683536475818E+01 -2.915586032085E-01 2.607287004978E+03
 2.430821628821E+00 -1.871495570427E+00 2.834941245994E-01 9.629494136304E+00 3.571252334433E+01 1.816393489017E+00 -1.105386298862E+01 -5.996406328009E+00 3.665443843623E-02 -2.967085042718E+01 1.197310681957E+02 -3.010851549806E-01 -3.160367148767E+02 2.672073757597E+03
 5.094967230411E-03 -5.968911582734E-03 9.832533210203E-04 5.053359190477E-02 1.293079820386E-01 -7.069691905453E-03 2.268472383613E-01 -4.189055592057E-01 1.148485995106E+01 -4.863668639713E-01 8.600751302444E-01 1.165455723509E+01 1.475298209932E+01 9.753825992921E+00 1.347218388410E+02
 -1.215545135892E+03 4.459755431772E+02 -8.382769817322E+00 -4.512481872047E+02 2.165557674262E+00 -3.758500216639E+00 -4.603917986903E-01 -2.246902409863E-01 -3.336962465251E-02 3.606726075818E-01 3.655454267141E+00 9.409971299562E-02 9.906808117799E-01 -3.593209299394E+00 7.298883607231E-03 2.793196904636E+03
 4.439850631962E+02 -7.412038697505E+02 5.471194936830E+00 -1.664151551781E+01 -1.395746526594E+03 7.148577762048E+00 -1.646523122962E+00 -8.017945932863E-01 2.018636103206E-02 1.301258082597E+00 1.000135506058E+01 9.261567086179E-02 2.877757929647E+00 -1.041215719261E+01 1.955424054982E-02 1.136260615230E+01 2.747061872673E+03
 -8.166071498345E+00 5.121630499448E+00 -8.304747858483E+01 -4.157528660514E+00 6.850294741368E+00 -7.782455392415E+01 2.772760342329E-01 8.473115249464E-02 4.743489877926E+00 -2.368999537595E-01 -1.328265007007E+00 -9.924779253011E+00 -4.658760323818E-01 1.281322035877E+00 2.270052161865E-03 1.146868837851E+01 -1.473249295953E+01 1.890481389537E+02
 -1.253176821201E+03 -4.265856824248E+02 -7.218854507626E+00 -1.446445908165E+00 -5.192718083587E+00 -9.684049729768E-02 -1.230779586866E+03 4.389119705805E+02 -5.946680848942E+00 -4.838753504845E+02 -2.177089512963E+01 -3.001272793426E+00 -2.265220169484E+00 7.516396999992E+00 6.976134207626E-02 -1.944305739945E+01 -3.199593194238E+01 -4.168809398138E-01 2.847820143007E+03
 -4.272653855968E+02 -7.179367841513E+02 -2.825997611137E+00 1.721961771429E+00 5.551656651831E+00 3.689643564299E-02 4.381021552763E+02 -7.395911818157E+02 1.051615663275E+00 -1.102814336410E+01 -1.473320652523E+03 -3.750507506090E+00 1.142491714195E+00 -7.300274935920E+00 8.323251016903E-02 3.579884877827E+01 5.949878354201E+01 5.156661059011E-01 3.843282429679E-01 2.818201679220E+03
 -7.408633011515E+00 -2.765189283981E+00 -8.432561354227E+01 -4.631038006401E-02 -3.031750941726E-01 -1.004532713078E+01 -5.988587079084E+00 8.319073424436E-01 -8.516050416256E+01 -3.015086666220E+00 -4.604419945163E+00 -8.458142018963E+01 2.767152625707E-01 4.045880447094E-01 -1.033459764773E+01 -3.329217805164E-01 -4.107789355808E-01 8.910138430335E+00 1.553684267730E+01 5.643764742537E+00 1.966281698700E+02
 6.781203713991E-01 -5.118222414288E-01 1.041765735630E-01 -1.442305284551E+03 -4.890377763883E+02 -1.944440695597E+01 -2.993248076643E+00 -1.386960035412E+00 -2.126931474613E-02 -1.302099926482E+03 4.858413603943E+02 -1.252377279622E+01 4.454032572789E+00 -1.451987083375E+01 -8.786490277483E-02 3.889743641550E+01 -3.561589041911E+00 1.103699426553E+00 4.367108571153E+01 -2.302894111513E+00 4.012126304497E-01 2.983461027193E+03
 1.675323643309E+00 -1.370257507443E+00 1.453989391961E-01 -4.744878607167E+02 -7.393405466571E+02 -5.033762102201E+00 -1.076263761208E+01 -4.698106441535E+00 -2.801639173048E-02 4.678281135290E+02 -7.307164927743E+02 2.259800170376E+00 7.680159766419E+00 -4.306598342964E+01 -3.401848951602E-01 -7.935943793816E+01 -7.090224664047E+00 -3.544923755603E-01 7.892735333632E+01 -8.517871612148E+00 1.592675299701E+00 4.003311844796E+01 2.288023370107E+03
 3.451281053541E-01 -1.104783262372E-01 -9.841778621058E+00 -1.926931163509E+01 -4.373321265523E+00 -7.950846828712E+01 -2.247603748417E-01 -1.994086499350E-01 4.886568748165E+00 -1.258652125099E+01 7.033306731152E+00 -7.500614026114E+01 3.268080597873E-01 -3.725867987855E+00 6.096075195880E+00 8.144911268332E-01 -4.741095162473E-01 9.950097898468E+00 9.228370939862E-01 9.042256768389E-02 1.109152810790E+01 3.439235260056E+01 3.758064101457E+00 1.526748464916E+02
 -1.448914807143E+00 1.146153112941E+00 -2.373403597443E-01 -5.471065492955E+00 -2.046400794027E+01 -1.093937362209E+00 -1.235288386015E+03 -4.270637844475E+02 -8.109367684118E+00 -5.887398551720E+00 -2.667867835903E+01 3.531109602435E-01 -4.906209064131E+02 2.383021269522E+01 -2.274926381782E+00 2.328104577140E+00 6.414279681435E+00 -8.114951393248E-01 -2.452801640538E+01 -2.928847367088E+01 -5.760396677971E-01 8.613779595322E+00 2.133435666457E+01 2.266081716958E+00 2.780815786367E+03
 -1.745332689279E+00 1.345630666380E+00 -2.303161580149E-01 -6.873658254834E+00 -2.509072665246E+01 -1.197202439032E+00 -4.238231891676E+02 -7.208757486178E+02 -4.979105335437E+00 -6.188600835518E+00 -3.330635111400E+01 1.120593717263E-01 2.346239584617E+00 -1.470086481579E+03 -6.871368473693E+00 2.519435907451E+00 7.218701975178E+00 -9.151903450727E-01 3.011377093075E+01 6.523066926774E+01 2.620972332802E-01 1.016978303417E+01 2.762166725973E+01 2.384993575673E+00 -5.550806906833E+01 2.835312483572E+03
 -2.032344688497E-02 5.486377757945E-03 4.751888869100E+00 -3.906781222340E-02 -1.504957194879E-01 -1.589378038702E-02 -7.962467534681E+00 -4.764695431587E+00 -8.398246032132E+01 -3.455033340219E-02 -1.550550328827E-01 -1.023249188431E+01 -2.427520751873E+00 -6.945879696797E+00 -7.141124883727E+01 2.781612491561E-02 6.329170375650E-02 -7.332918796136E-03 -1.287204948740E-01 -1.248821548936E-02 9.423630587087E+00 8.081763295851E-02 7.138365879670E-02 3.232917851945E-02 1.315610735343E+01 1.253510380294E+01 1.757563797014E+02
 2.555078000743E+00 -1.958526144423E+00 2.765881501720E-01 1.013516194964E+01 3.706266180876E+01 1.574253029172E+00 -1.145433197824E+01 -5.339983895946E+00 1.432060138352E-01 -1.240646889352E+03 -3.854284608873E+02 -1.200213095890E+01 -1.457009068648E+03 5.140902264395E+02 -7.094049411100E+00 -3.663292556052E+00 -1.060910354172E+01 1.380088549735E+00 4.579999401595E+01 -7.522694188568E+00 5.657876563218E-01 -3.479433583021E+01 -7.608552112233E+01 -3.699896939043E+00 8.124990110590E+01 3.872128756352E+01 5.280993076908E-01 2.903392553944E+03
 3.794933293547E-01 -3.273853760646E-01 4.662614213367E-02 1.397058740366E+00 6.470988581859E+00 7.625552421886E-01 -3.664747832220E+00 -1.419530018268E+00 -1.311258695766E-02 -4.150185481659E+02 -7.069480927369E+02 -6.251580647115E+00 5.524647580063E+02 -8.678924480389E+02 -7.820977758032E-02 -9.297373072427E-01 -2.589317403309E+00 2.199015838862E-01 -6.879056258292E+01 -2.084038677683E+00 -1.924199340329E-01 3.368993167810E+01 5.102329984525E+01 -1.117360112483E+00 8.872100914403E+01 8.688586564685E+00 5.171829580499E-01 -1.473092207327E+02 2.349822934351E+03
 -1.292584877713E-03 -5.366271912782E-02 4.643296608375E+00 1.946048784895E-01 6.343811504853E-01 5.783403567359E+00 2.575789333478E-01 6.021832816263E-02 -1.031941343557E+01 -1.151825632170E+01 -4.631148322534E+00 -7.163354858248E+01 -7.521425068326E+00 -5.061777131473E-01 -6.530697628352E+01 6.803763130162E-03 1.148511520699E-02 7.317002498900E-03 3.111138785603E-02 2.031338630784E-01 1.077664281376E+01 -4.308173343392E-01 -1.651105128441E+00 6.087482375374E+00 1.324516068934E+00 4.879317471793E-01 1.112100649926E+01 1.974007106393E+01 7.986134264056E+00 1.380147015769E+02
 -5.795999461550E-01 4.113992889029E-01 -7.094697839028E-02 -2.471811916299E+00 -8.465004366518E+00 -3.827091966220E-01 1.464368854172E+00 7.452425069256E-01 -3.406170599318E-02 -1.147814691857E+00 -1.168469516162E+01 -1.349502968232E-01 -2.933012068775E+00 1.177386896198E+01 -3.126620118469E-02 5.728429757461E-01 1.875017971031E+00 -2.807488242211E-01 -1.535792618252E+00 5.458491347659E-01 1.329767190332E-01 3.117447016822E+00 1.031770648650E+01 3.725087116168E-01 -7.424032469087E+00 -8.084063024721E+00 -9.431789453767E-02 1.187166393955E+01 3.323963248244E+00 -7.851675006905E-02 2.794707263822E+03
 2.156715591070E-01 -1.442385270502E-01 8.324355038396E-03 9.686991768744E-01 3.162031777313E+00 7.782439434558E-03 -1.954963118779E-01 -1.329366856143E-01 1.775637098449E-02 1.443172435647E-01 4.490281733135E+00 9.789518454450E-02 7.432535218535E-01 -4.248807856976E+00 2.363201329397E-02 -1.318020254919E-01 -5.322156845319E-01 1.301372072835E-01 5.059454536244E-01 1.248178062352E-01 -1.010509618426E-01 -1.077664055411E+00 -4.282969269590E+00 -7.518201656331E-02 2.798566328545E+00 2.828607276721E+00 4.627760778391E-02 -4.155604990039E+00 -1.567860134410E+00 9.808845399676E-02 5.310427152894E+01 2.794556831669E+03
 5.569828437747E-02 -2.878014250640E-02 7.652937144182E-03 2.198402801597E-01 6.385818050842E-01 -1.659536802574E-02 1.349802038713E-01 4.143748516150E-02 5.955485541936E-03 -1.117693454697E-01 9.422195677807E-01 4.835210560068E-02 -1.395026203530E-01 -8.570551271745E-01 1.250538189199E-02 -1.564913226534E-03 5.161856333228E-03 4.665817057247E+00 6.739719920915E-02 1.916235923044E-01 -4.662352393080E-02 -1.720214061067E-01 -1.210499076420E+00 5.438660430641E-02 5.586036548705E-01 4.672918538489E-01 1.366316283371E-02 -7.057879768447E-01 -6.125488311545E-01 5.428244002843E-02 -8.194055031533E+00 -3.002068632199E+01 1.924336168732E+02
 -6.523011814002E-01 5.531127759630E-01 -5.450642283161E-02 -2.377386995947E+00 -1.020352616595E+01 -8.721296027160E-01 5.332247604189E+00 2.208037362621E+00 3.257872718945E-02 -4.689386193189E+00 -1.290984682870E+01 5.725069673736E-01 -1.923885041757E+00 1.954881206707E+01 2.196716046489E-01 1.434983247926E+00 3.914786779969E+00 -3.585813730521E-01 -2.520004468725E+00 4.061948537122E+00 -5.508367319752E-01 4.666903094509E+00 1.567331788884E+01 2.018630065402E+00 -8.701724332536E+00 -1.189915970152E+01 1.199989513900E-02 1.779067618011E+01 7.455458093680E+00 8.269892262212E-01 3.826042686521E+01 7.633307129823E+01 -7.062002334239E-01 2.453236247686E+03
 1.947574931087E+00 -1.556761260603E+00 2.217102120731E-01 7.420695173356E+00 2.854949225454E+01 1.591028166171E+00 -1.120410098751E+01 -5.021730406008E+00 2.225359274058E-02 9.216418476826E+00 3.719829297749E+01 -6.358017251384E-01 1.189017100034E+01 -4.565549670293E+01 -2.540644876013E-01 -3.335191801876E+00 -9.284182929135E+00 1.103587535188E+00 6.399891974664E+00 -7.727257358206E+00 6.440216760492E-01 -1.212952656743E+01 -3.341474305131E+01 -3.677218498612E+00 2.453300560196E+01 3.084300827423E+01 1.286683858689E-01 -4.567084904873E+01 -1.098416495644E+01 -1.135215519321E+00 1.026478440437E+01 -5.535739817156E+00 -9.103511433705E-01 2.615258301552E+02 2.809725128490E+03
 -5.536061027741E-02 4.886363526511E-02 -7.428711284790E-03 -2.294549556497E-01 -8.640219654715E-01 -3.412217687745E-02 2.569234628710E-01 1.233404066256E-01 -1.883885147799E-03 -2.017584821825E-01 -1.121066427130E+00 4.847765055506E-03 -3.375712155906E-01 1.263301423301E+00 2.640314722923E-03 6.828496390835E-02 2.361967005509E-01 -3.133841495793E-02 -1.794435659105E-01 1.536268797089E-01 -5.857121055051E-03 3.399196724252E-01 9.840867649285E-01 7.919875654209E-02 -7.275207033037E-01 -8.664308085249E-01 -6.047595820534E-03 1.275193518050E+00 3.103678029768E-01 1.632292862988E-02 -4.105041379451E-01 -2.144000270042E-02 1.143439292976E+01 -8.764374413442E+00 -4.483008704887E+01 1.459705035882E+02
 -2.045566776801E+01 -3.407595257803E+01 1.618888861247E-01 3.741931931622E+01 -2.114005594090E+00 4.319580366303E-02 -6.351208376230E-02 -6.335413931046E-03 2.003968545575E-03 5.466457762731E-02 -2.007929174541E+00 -6.035509241196E-02 -1.763859843160E-01 1.781737501289E+00 -1.913208549013E-02 -1.240163620575E+03 -4.330920530720E+02 -7.007584372605E-01 -1.901164316021E-01 -1.926727434678E-01 8.325203197159E-02 4.312890467309E-01 2.041336861242E+00 -1.034836611438E-01 -1.229937112473E+00 -1.149024083871E+00 -2.051864612047E-02 1.687799378239E+00 8.177101137037E-01 -7.068529395369E-02 -1.998182257630E+01 3.484180406165E+01 -3.239359644634E-01 -1.119506059174E+00 1.988460561700E+00 -2.217651318872E-02 2.767542395909E+03
 3.576383336115E+01 5.988367718916E+01 -3.004878483962E-01 -6.637463987543E+01 1.660158918288E+00 1.905958939613E-01 -3.866019964313E-01 -1.638256025491E-01 -1.543256534593E-03 3.107515043050E-01 4.424744491141E-01 -5.879244983877E-02 4.891378155703E-01 -6.571026166040E-01 -1.936920619431E-02 -4.408116986790E+02 -7.234670078707E+02 2.482613767762E+00 1.335832483697E-01 -3.243803610995E-01 7.955841305809E-02 -2.142158370873E-01 -5.610215299578E-02 -1.625501491808E-01 3.318191615721E-01 5.530137907051E-01 -1.310423117439E-03 -7.954902999090E-01 1.842018861950E-01 -7.410607682157E-02 -3.339598589642E+01 5.895417093098E+01 -5.190332034862E-01 -1.482160466323E-01 -2.624860739949E-01 3.420708608475E-02 2.945217085904E+01 2.810861797363E+03
 -3.213587180016E-01 -5.865872972677E-01 9.394823361247E+00 4.836668508776E-01 1.052017172840E-01 7.246961575921E+00 4.534950316202E-02 -7.332007962564E-03 3.868882279955E-04 -2.915746410492E-02 2.326542792650E-03 3.289808153558E-03 -4.124642535687E-02 1.846862700662E-02 1.058539771865E-03 -2.215661793210E-01 2.861850524727E+00 -8.224773024309E+01 -3.528633684255E-02 5.076670728368E-02 4.692379423280E+00 -7.977694229326E-02 -3.110702439419E-03 5.080079292101E+00 -1.003996820092E-02 -1.379677915115E-02 4.960363368143E-04 4.140463725918E-02 -2.925220716132E-02 5.240375411616E-03 4.201692705642E-01 -7.891541267214E-01 9.415503117935E+00 7.414533363475E-02 1.056731438199E-02 -5.529820517406E-04 3.185415036249E+00 -1.643797456651E+01 1.913949504251E+02
 -5.223140040576E-01 3.716481908384E-01 -5.922611198445E-02 -1.980020530642E+01 -3.763599735920E+01 2.121518461510E-01 1.299466503971E+00 6.673469757106E-01 -3.281558637661E-02 -1.016687869369E+00 -1.049802691617E+01 -1.145144136373E-01 -2.515867598059E+00 1.066531366806E+01 -2.238268446032E-02 5.066309272295E-01 1.679579986051E+00 -1.463082795553E-01 -1.380093874102E+00 4.734187177785E-01 1.144023444748E-01 2.808088373673E+00 9.438675709640E+00 3.786639632175E-01 -6.661844647192E+00 -7.257332934299E+00 -8.756536032830E-02 1.068600909710E+01 3.137313230165E+00 -7.039671051624E-02 3.917754960031E+01 -7.117132398556E+01 8.759683115926E-01 -2.504616387554E+01 4.419833936345E+01 -8.151751608650E-01 3.880551012623E+01 6.611054200077E+01 -9.394177535907E-01 2.733850720772E+03
 4.139677039070E-01 -3.196014552020E-01 9.266014671080E-02 3.138831098400E+01 5.683287282475E+01 -7.349716715815E-01 -1.974385142477E+00 -9.161931425695E-01 1.487012632237E-02 1.566312511740E+00 7.991421862978E+00 -3.477730734885E-02 3.072881793465E+00 -8.737299578978E+00 -1.952768576356E-02 -6.169554093688E-01 -1.777767544745E+00 2.548252098085E-01 1.274775463159E+00 -1.261368502432E+00 6.324979000010E-02 -2.447133532678E+00 -6.141196558541E+00 -4.741044894132E-01 5.222818597911E+00 6.263062611407E+00 4.181246623240E-02 -9.179656392977E+00 -1.435644508066E+00 -1.302146882756E-01 1.790112141319E+00 -3.133315612968E-01 -6.711256433424E-03 -3.347619864132E+01 5.295279859479E+01 -7.651860986165E-01 8.346669286657E-02 -4.881552621889E-01 1.289498657766E-01 3.437494719832E+01 2.775159096283E+03
 1.166981744296E-02 2.034191825785E-02 -8.562200493500E-03 -9.144682708991E-01 -1.542355378608E+00 6.803441259373E+00 -7.627951105750E-01 -3.100532138199E-01 -1.295352880316E-02 6.247023116440E-01 -8.185549997497E-01 -1.386580722540E-01 1.076191610274E+00 4.541153464291E-01 -3.640899901281E-02 -2.315056337019E-01 -4.964886143174E-01 -8.355225509262E+00 6.891236771785E-02 -7.530433291458E-01 1.349670073975E-01 -1.219992266458E-01 2.005476117028E+00 4.431982310263E+00 -3.717144092682E-01 9.722893581435E-02 -2.738743670710E-02 -7.187878289045E-02 1.383765853589E+00 -1.710433411999E-01 4.849176741466E-01 -9.069844151084E-02 8.531863854891E+00 -8.388350675883E-01 3.830136107013E-01 1.104463409121E+01 6.403221710675E-02 1.102555425251E-01 9.270805731822E+00 4.025452321685E+00 -3.751866652662E+01 1.879879746122E+02
 1.763302282760E+00 -1.394435035827E+00 1.975510381419E-01 6.699732137953E+00 2.505651298175E+01 1.330590633303E+00 -9.087435900317E+00 -4.247873451191E+00 4.966709435426E-02 7.198895760592E+00 3.273593322854E+01 -3.243584781618E-01 1.240797779350E+01 -3.782155115470E+01 -1.346050286070E-01 -2.832711555798E+00 -7.834829263442E+00 9.379532472922E-01 5.501949373609E+00 -6.019965062774E+00 3.415079432569E-01 -1.051663708690E+01 -2.618458145707E+01 -2.779438983895E+00 2.146766826782E+01 2.650998160276E+01 1.532754614935E-01 -3.926107121471E+01 -6.780872558325E+00 -7.122021571802E-01 -1.157792482568E+03 3.962697478545E+02 -2.016698382497E+00 -5.067360448196E+02 -3.961963843172E+01 2.563304822185E+00 1.500720198202E+00 -4.010202232066E-01 -4.417601329731E-02 8.148626367158E+00 -6.379749790898E+00 4.777678499733E-01 2.712822487535E+03
 -1.516907677810E+00 1.192377510808E+00 -1.657225555248E-01 -5.820712325382E+00 -2.164784467138E+01 -9.275755995761E-01 7.566887412808E+00 3.539182285406E+00 -4.618386223059E-02 -5.992937540626E+00 -2.844108369574E+01 2.422692668543E-01 -1.072366400830E+01 3.231816754563E+01 1.035481442335E-01 2.369851692796E+00 6.627758771646E+00 -8.081262196241E-01 -4.696743110960E+00 4.940040040620E+00 -2.574983090889E-01 8.991147636758E+00 2.260106973602E+01 2.337151904027E+00 -1.861972460006E+01 -2.276451073722E+01 -1.402918662971E-01 3.362331729074E+01 5.760634655652E+00 5.604364555851E-01 4.047744461683E+02 -6.941004925804E+02 7.493112668716E+00 -2.853167002374E+01 -1.671406821508E+03 2.671781633002E+01 -1.222653979083E+00 3.790627734833E-01 8.097864460689E-02 -6.841954009825E+00 5.462285508505E+00 -4.214216774248E-01 6.113816402548E+01 2.969678727170E+03
 -6.522832767833E-03 -6.042795044830E-03 -2.692363625752E-03 -7.958682295609E-02 -1.702990611247E-01 1.432662264980E-02 -1.353877412492E-01 -5.667592453634E-02 -2.785263994751E-03 1.030072168516E-01 -2.853711086247E-01 -2.812287480142E-02 9.881942680824E-02 1.545960689683E-01 -8.297983341444E-03 -2.784746719818E-02 -2.076712629475E-02 -2.178280080483E-04 5.430509065970E-03 -1.362139195208E-01 2.736429624889E-02 2.495279872980E-02 3.871946658182E-01 -4.905726956300E-02 -1.553300813482E-01 -6.687141163568E-02 -6.246600692343E-03 1.018681155814E-01 2.083684555920E-01 -3.433086249330E-02 -1.645861473111E+00 6.889471756024E+00 -8.074708620903E+01 1.524281467175E+00 2.778097194907E+01 -7.644557461036E+01 8.532494105610E-02 7.139320487163E-02 4.353558000528E+00 4.729619874377E-02 -1.057978073274E-01 -9.782728688918E+00 -1.196984109406E+01 -4.580144820346E+01 1.765510050861E+02
 2.246878045066E-01 -1.755507601655E-01 -2.494803188433E-02 8.866110622590E-01 3.251540631369E+00 4.087099565490E-01 -1.032856563644E+00 -4.854087626959E-01 5.253200961900E-03 8.202655040353E-01 4.298150924101E+00 -3.699260086323E-02 1.400546623173E+00 -4.882579096331E+00 -1.534689011137E-02 -1.968907305200E+01 3.302995350422E+01 -1.914904896268E-01 6.841717238897E-01 -6.484800929112E-01 1.292599637134E-02 -1.321713146121E+00 -3.656385201622E+00 -3.480364079408E-01 2.794656046486E+00 3.356933614681E+00 2.401907662900E-02 -4.975140451633E+00 -1.088747091267E+00 -6.930085053787E-02 -1.280012471177E+03 -4.508458488527E+02 7.921464608628E+00 1.600822657548E+00 -4.035560766873E+00 4.183531503352E-02 -1.164921644850E+03 4.182337332883E+02 -2.681428286114E+00 -4.714103810135E+02 -5.506558338105E+00 4.009146526489E-01 -2.300590471271E+01 -3.066495380298E+01 4.778145366341E-01 2.799249755289E+03
 -3.347650191718E-02 2.515461536753E-02 6.589103364948E-03 -1.041488277943E-01 -4.355669166939E-01 -1.813438230342E-01 2.154607494201E-01 1.010515963427E-01 -1.869878118088E-03 -1.718833877739E-01 -5.453594214277E-01 2.035403834031E-02 -2.114011031436E-01 7.418106051547E-01 1.145757502079E-02 -3.271614184966E+01 5.770929132297E+01 -2.431599539650E-01 -1.089223757199E-01 1.560989523529E-01 -2.558670010753E-02 2.041142406169E-01 4.801050031821E-01 1.401676368956E-01 -3.629721283919E-01 -4.955569010431E-01 -3.318559364979E-03 7.513135176836E-01 1.490570334145E-01 2.713064276470E-02 -4.506193847822E+02 -7.418084404914E+02 8.806180246871E+00 -1.962064048616E-01 5.358055795507E-01 -1.983800686685E-01 4.153818126816E+02 -7.078210361238E+02 5.370346707334E+00 -5.685298940005E-01 -1.478792773017E+03 1.839229418818E+01 3.477160571882E+01 5.851498795770E+01 -6.131631796760E-01 3.882048118516E+01 2.812053364385E+03
 1.438707905591E-02 5.086135978334E-02 4.453763549627E+00 -1.090216263004E-01 -4.003771896059E-01 -8.300700061655E+00 1.271760674555E-02 2.191728234513E-03 -1.909506512263E-03 -1.232481701732E-02 -4.474292534492E-01 -1.310317148422E-02 -4.082421697096E-02 4.229193285653E-01 -3.489484060010E-03 1.077479818239E-01 -5.775119135291E-02 8.561360924576E+00 -5.247873092749E-02 -6.163143576505E-03 1.264293387160E-02 1.160151831636E-01 4.574153946956E-01 -4.179919587266E-03 -2.718657510963E-01 -2.635151062753E-01 -4.803540797926E-03 4.000167995018E-01 1.900958230015E-01 -1.298450694073E-02 8.194844469479E+00 8.898062643646E+00 -8.521355425310E+01 -2.773630629982E-01 3.475608188876E-01 -9.881285763167E+00 -2.649298469960E+00 5.006306619318E+00 -8.024873739106E+01 1.351316561944E-01 1.830394035658E+01 -8.240329112301E+01 -2.452249467840E-02 -7.766796238554E-01 1.065083859898E+01 -5.859647422580E+00 -3.209101998523E+01 1.927876236565E+02
 1.341942071466E+00 -1.100502440779E+00 1.351992989877E-01 4.900429815465E+00 1.900908042774E+01 9.650458465587E-01 -8.267693991894E+00 -3.791987170256E+00 2.001916161949E-02 6.569432121046E+00 2.436724205370E+01 -4.632386595657E-01 1.069385432898E+01 -2.937685108650E+01 -1.687446839719E-01 -2.461207747881E+00 -6.597283100081E+00 7.739672810967E-01 4.446780994297E+00 -5.849821207184E+00 4.721695741351E-01 -8.318354297429E+00 -1.835875472158E+01 -2.611016749416E+00 1.619797889522E+01 2.087577402935E+01 7.889205899458E-02 -3.091131733963E+01 -4.003026750856E+00 -8.192731902169E-01 7.928775102897E+00 -3.235656763400E+00 -7.961984958900E-01 -1.288140809020E+03 -4.976504144997E+02 1.005228388234E+01 1.517399489967E+00 -1.316453572146E-01 -2.657863662037E-02 -1.170697180527E+03 4.055194823090E+02 -6.567569811644E+00 2.886709734221E+01 1.661797620583E+01 2.273464251486E-01 3.514940864419E+01 9.242493306230E-02 4.513456437289E-01 2.810817775129E+03
 -1.584819611060E+00 1.230812186172E+00 -2.047110147868E-01 -6.167631476783E+00 -2.272543530819E+01 -9.217479258449E-01 7.506187073339E+00 3.519103418219E+00 -5.314085401120E-02 -5.966228391351E+00 -3.000793087941E+01 1.816713651829E-01 -1.046234912287E+01 3.399639365886E+01 8.925863781143E-02 2.382811653540E+00 6.747226009431E+00 -9.123337457306E-01 -4.837988669442E+00 4.785019618067E+00 -2.113534452447E-01 9.326019238980E+00 2.475001817028E+01 2.255532691587E+00 -1.957176423168E+01 -2.366159557426E+01 -1.566939626402E-01 3.498547279707E+01 6.903555148884E+00 5.079461446287E-01 -7.661208954491E+00 2.757209928580E+00 3.907621939062E-01 -4.760911661828E+02 -7.412724507425E+02 1.199748628579E+01 -1.162681085129E+00 4.431794523706E-01 -1.921128055881E-02 4.009176756160E+02 -6.881064605948E+02 1.026221397284E+01 -5.749233057025E+01 -1.932135901850E+01 1.238469456478E-01 6.943946887792E+01 -8.037789278533E-01 1.472433539173E-02 9.296579713602E+01 2.854978493578E+03
 9.467761434319E-02 -3.847875503176E-02 1.599408095097E-02 4.573883460514E-01 1.460116719342E+00 3.761191250360E+00 2.134743711747E-01 6.958201748722E-02 1.209505947345E-02 -1.607852156263E-01 2.026176717812E+00 9.382541335978E-02 -2.138521901283E-01 -1.908562773964E+00 2.384360137955E-02 -9.644067803179E-03 -1.193910176225E-01 3.326928334098E-02 1.525442099934E-01 3.237621924283E-01 -8.987689821436E-02 -4.074474469795E-01 -2.531759822264E+00 9.111015345418E-02 1.209005981428E+00 1.057333662487E+00 2.773854020371E-02 -1.616435492547E+00 -1.257668480656E+00 1.019455177718E-01 -5.147380328543E-02 -3.518199979387E-02 -9.708492177070E+00 1.073036677536E+01 1.053477957085E+01 -7.277791146560E+01 -1.184292627293E-01 -2.791909618309E-02 4.267723434710E+00 -7.814596775655E+00 1.016311490691E+01 -8.066494324300E+01 -1.794896299063E-01 1.315785695529E+00 1.045886943980E+01 -9.199479485006E-01 1.956721962747E-01 9.339411316423E+00 -3.961009016223E+00 -4.977632969450E+01 1.753601591546E+02
 -7.675070882445E-01 6.474245996018E-01 -1.322208934705E-01 -1.048807296864E+03 3.470443964597E+02 -1.622462748659E+01 5.449237330624E+00 2.441389779524E+00 -7.723934433079E-04 -4.379350484638E+00 -1.397506384766E+01 2.975747992410E-01 -6.570277303681E+00 1.753797322613E+01 1.278733700748E-01 3.490966528427E+01 3.484889565168E+00 -4.676073598310E-02 -2.702379643991E+00 4.018306411511E+00 -3.837178819102E-01 -1.335346393606E+01 4.539315983635E+01 1.091022505871E+00 -9.401348471908E+00 -1.250513843362E+01 -2.350370135420E-02 1.847927788447E+01 2.105085870145E+00 6.251689933211E-01 -5.095344322700E+00 2.183128635867E+00 5.695416802425E-01 -3.542096059706E+00 1.250149981168E+01 -4.177308711026E-01 -1.077940171630E+00 -1.703382853718E-02 -9.141434463882E-03 -1.214176328620E+03 -4.227972212106E+02 2.367461126254E+00 1.151382677191E+01 -1.014584262676E+01 -2.029459675534E-01 4.164584459373E+01 -3.938013517613E-01 -1.829934714004E-01 -1.135041187915E+01 -4.436716516775E+01 1.671493706708E+00 2.624213535139E+03
 5.070243725729E-01 -2.966459789672E-01 8.328177311336E-02 3.735799369597E+02 -6.336483902423E+02 1.212914582353E+01 9.050042190865E-01 2.605384333255E-01 6.040751811863E-02 -7.550219353842E-01 1.125285964062E+01 4.734288872759E-01 6.635653410586E-01 -9.357468517696E+00 1.260249137446E-01 5.700863675506E+01 -1.715754384240E+00 9.757485201229E-01 9.361838838584E-01 1.577824366918E+00 -4.529459901031E-01 -3.356309524653E+01 4.839755025654E+01 -3.476863829753E-01 6.819593349676E+00 6.018200388640E+00 1.474002472758E-01 -8.786786978557E+00 -4.692395138937E+00 5.184465684155E-01 -5.955403209355E-02 6.575493248833E-01 4.944346970679E-01 6.469614351034E+00 -1.112117030661E+01 2.980742058032E-01 -5.439669269622E-01 -5.584265910926E-01 -8.576811325814E-02 -4.400264273000E+02 -7.132507384450E+02 8.692359171960E+00 -8.312580794206E+00 6.673565639683E+00 -2.912369101817E-01 -6.859348161643E+01 6.098545357513E-01 -1.185575065195E-01 2.342973096052E+01 6.272007619821E+01 2.405069986346E-01 2.579130025612E+01 2.881295899505E+03
 -1.736009500140E-01 1.034671696423E-01 3.855366166360E+00 -1.581396152475E+01 1.184351426212E+01 -7.528214539698E+01 -1.813652728540E-01 1.797088622295E-02 -9.656137434741E-05 2.609720020122E-01 3.983543264371E-01 4.936309048728E+00 3.544580600465E-01 -4.676203669172E-01 -4.242984945435E-03 1.860331530057E-01 3.747542254051E-02 6.677644800771E+00 3.642288377874E-02 -3.303285125180E-01 1.484703616177E-02 -6.733316605876E-01 3.132715923632E-01 1.021716497423E+01 2.240648158497E-01 3.156470411738E-01 -6.488793598180E-04 -6.155994429339E-01 8.914207747955E-02 -2.207948228848E-02 2.403152884145E-01 1.280848703828E-01 4.767614363339E+00 -8.408602188840E-02 -1.536612196699E-01 4.657274586613E+00 2.353437805992E-01 -1.553456581097E-01 -8.367724201541E+00 4.029417104747E+00 1.033156164256E+01 -7.920759442174E+01 -2.821698748729E-01 1.575354522393E-01 1.308598390536E-02 7.279592495025E-01 -6.130327714859E-02 7.718460808081E+00 -5.796767306717E-01 -2.998778971004E-01 9.861158091960E+00 1.426117016792E+01 -6.095481621016E+01 1.804014180928E+02