#BIOSYM hessian 1
@Type: Hessian Update
@Units
 distance: 	A
 energy: 	Kcal/Mol
#header
@natom 66

#label
C1      C2      C3      C4      C5      C6      C7      C8      C9      C10     C11     C12     C13     C14     C15     C16     C17     C18     C19     C20     C21     C22     C23     H24     C25     C26     C27     C28     C29     C30     C31     C32     C33     C34     C35     C36     C37     C38     C39     C40     C41     C42     C43     C44     C45     C46     C47     C48     C49     H50     H51     H52     H53     H54     H55     H56     H57     H58     H59     H60     H61     H62     H63     H64     H65     H66

#element
C  C  C  C  C  C  C  C  C  C  C  C  C  C  C  C  C  C  C  C  C  C  C  H  C  C  C  C  C  C  C  C  C  C  C  C  C  C  C  C  C  C  C  C  C  C  C  C  C  H  H  H  H  H  H  H  H  H  H  H  H  H  H  H  H  H 

#matrix
198
 2.800141510856E+03
 -9.038235631316E+00 2.766399889296E+03
 1.620514990138E+01 -1.951829022125E+00 1.899640655528E+02
 3.755406884331E+01 6.437267427991E+01 -1.165261059048E-01 2.840761695179E+03
 -1.881557808072E+00 -4.977929864427E-01 -2.838583394874E-01 1.455567147075E+02 2.645305515615E+03
 4.009042055290E-02 2.392239605024E-01 1.046612761239E+01 3.751657064119E+01 -7.047194734668E+00 1.793722011628E+02
 -1.900864895778E+01 3.372758483117E+01 -3.824334325497E-01 9.470388610435E-01 7.269516772871E-01 5.856400212918E-02 2.815545913753E+03
 -3.184149213258E+01 5.900546886372E+01 7.905589788429E-02 5.163162801464E+00 1.030628624466E+01 8.124371862658E-01 9.001915185319E+01 2.699759013737E+03
 -1.348730441117E-01 3.417765426496E-01 8.505081167400E+00 -7.508766014917E-01 -9.732468616833E-01 -1.160915005437E-01 1.356333289529E+01 1.101179330943E+01 1.801065942924E+02
 3.729436274948E+01 -6.767622635748E+01 -1.183655237787E-01 -2.392085797764E+01 3.738638106607E+01 -4.465895463092E-01 3.594367348754E+01 6.825876950554E+01 1.333076294085E+00 2.918132608861E+03
 -2.056642002549E+00 4.926694597945E-01 -2.838157788979E-01 -4.971791877357E+01 5.018158541081E+01 -1.771496030581E+00 1.602968539054E+00 1.357806523954E+01 -1.416990085836E+00 6.533847200834E+00 2.769077932405E+03
 1.462183796505E-01 -3.638317404112E-01 8.799442558297E+00 -6.006378045951E-01 8.288368686645E-01 1.148792512705E+01 -9.126494373499E-01 1.578924336820E-01 1.045828585888E+01 2.470457181390E+01 9.639962566716E+00 1.767140612937E+02
 -7.200927220019E-01 4.076221954076E-01 1.220855950952E-01 -4.676327281820E+00 -8.825755848527E+00 -6.323527866526E-01 4.739826147425E+01 -7.490960616525E+01 1.076597193629E+00 -2.399473557173E+01 3.021441729960E+01 7.511516962947E-01 2.562020617834E+03
 2.927911113459E+00 -9.455539019319E-01 5.083998713059E-01 1.898380146905E+01 3.815531322680E+01 2.799036880683E+00 9.571577125346E-01 -2.223530230045E+01 1.465915652153E+00 -3.341336312329E+01 1.217275649946E+02 4.646115911718E-02 -2.720986007227E+02 2.739940828214E+03
 5.224363736804E-02 1.213073606124E-02 3.494493510394E-02 6.040027827643E-02 2.544822618188E-01 7.550636772501E-03 -2.197511580579E-01 -7.901607064623E-01 1.387260760183E+01 -2.044996845442E-01 9.531557268891E-01 1.210491175984E+01 1.499420053401E+01 1.225516800137E+01 1.253847245363E+02
 -1.209769800986E+03 4.447565015388E+02 -7.494180880081E+00 -4.434185408972E+02 1.235408836253E+01 -3.333018031638E+00 -2.477031818646E-02 -2.307966719427E+00 1.403705441917E-01 8.326689773625E-01 5.283962623360E+00 5.350788077100E-03 2.072602422414E+00 -8.632493244786E+00 -7.053196286565E-02 2.785830614512E+03
 4.410500999753E+02 -7.343379774810E+02 4.360518758428E+00 -8.627085999555E+00 -1.374007181545E+03 4.361861140097E+00 1.192054175357E+00 -2.587286170326E+00 -3.188989997335E-01 3.376457777039E-01 6.584603851664E+00 -1.523174955450E-01 1.703365631497E+00 -9.737629768462E+00 -1.869788193002E-01 6.050289423693E+00 2.715648467511E+03
 -7.156821654090E+00 3.941813297414E+00 -8.205722564458E+01 -4.259425530598E+00 3.908544057238E+00 -7.638456237857E+01 6.365965949908E-01 6.489244196016E-01 4.314993195843E+00 -5.243981077550E-01 -1.404026701841E+00 -9.724022107562E+00 -1.080309038575E+00 2.224894290112E+00 -4.113759683136E-02 1.205621990882E+01 -9.182052225485E+00 1.869798290054E+02
 -1.237614415392E+03 -4.222218915037E+02 -6.863084085940E+00 4.787240185773E-01 1.196181501303E+00 1.665332013856E-01 -1.202025481901E+03 4.234283882659E+02 -4.691422716271E+00 -4.679006399503E+02 1.552268757262E+00 -2.433960212257E+00 9.387185335257E-01 -2.647125267718E+00 7.758852319923E-02 -1.979325110955E+01 -3.324911616062E+01 -3.202056438138E-01 2.797091199059E+03
 -4.235844363787E+02 -7.025057027695E+02 -3.405365140806E+00 2.364313495760E+00 4.141996209024E+00 3.700943889852E-01 4.390173289194E+02 -7.146865563329E+02 -6.308483878915E-01 4.012944590540E-01 -1.435423789724E+03 -5.977829686681E+00 5.122682688671E-01 -7.429061533043E+00 -2.287370608876E-01 3.446021834578E+01 5.911054810917E+01 9.330812410113E-01 -3.764368337127E+00 2.734748367203E+03
 -7.415926044746E+00 -3.223141796341E+00 -8.140099987481E+01 3.087390278856E-01 3.064187726144E-01 -9.828855924304E+00 -3.919966823419E+00 -1.242916804238E-01 -7.993538459434E+01 -3.021262615996E+00 -5.145116732574E+00 -8.198609285752E+01 -3.623202871359E-01 -4.958034465097E-01 -1.073882272649E+01 -2.860741972661E-01 -1.958362950600E-01 8.561448575796E+00 1.400862600840E+01 8.925441819448E+00 1.881328833648E+02
 2.317263212969E-01 -1.238903624867E-01 -4.290590627647E-02 -1.474531966061E+03 -5.087256582300E+02 -1.947953963709E+01 8.409264406824E-01 -2.833980135570E+00 -2.221097869428E-01 -1.267261593867E+03 4.611455482279E+02 -1.045639933787E+01 2.063730875181E+00 -1.078300593501E+01 -2.102440621447E-01 3.925509349560E+01 -1.574926698963E+00 1.206326143868E+00 3.884364730613E+01 -8.297574463601E-01 3.176165400699E-01 2.984235193158E+03
 1.795494781813E+00 -1.074911782226E-01 5.761028167832E-01 -4.879652750928E+02 -7.604507885625E+02 -6.478267450063E+00 -4.098237052683E+00 -1.277830813327E+01 3.366834708549E+00 4.511044425984E+02 -7.159048092529E+02 2.512120763753E+00 6.082093703295E+00 -5.055700213948E+01 1.514899835866E-01 -8.133206248412E+01 -5.795058665328E+00 -7.184003670282E-01 6.877308372888E+01 -6.642440653244E+00 -3.377644665714E-01 7.799450793157E+01 2.285954122037E+03
 3.525130201274E-01 -3.348815078210E-02 -9.653464489361E+00 -1.872051519542E+01 -5.439859197766E+00 -8.015097913034E+01 9.894554244300E-01 -1.342490602259E+00 4.258464782711E+00 -1.050461247625E+01 5.048399540557E+00 -7.300465243274E+01 3.247197326656E-01 -5.000567502645E+00 5.621397985308E+00 2.454888634676E-01 -4.365403101917E-01 9.870069786647E+00 2.173983735589E-01 1.406116273101E-02 1.108558762595E+01 3.244368339020E+01 7.397051197724E+00 1.515491217262E+02
 -1.068113243152E+00 4.228390625362E-01 -9.590417333417E-02 -6.614505230595E+00 -1.302246966500E+01 -9.373777830931E-01 -1.296908468207E+03 -4.822986139471E+02 -8.843662568666E+00 -1.574395868669E+00 -1.708531936144E+01 6.422570053025E-01 -5.025042363510E+02 1.225609848736E+01 -2.374926944810E+00 3.028670210613E+00 3.163618689455E+00 -1.151230412763E+00 -2.125661754826E+01 -3.637484826625E+01 -5.504680574860E-01 3.563890227965E+00 1.030211450756E+01 1.258309193124E+00 2.448722296123E+03
 -4.452702048030E+00 1.200298141643E+00 -1.089746802076E+00 -2.665112751930E+01 -5.458437079547E+01 -3.908675213044E+00 -5.080288716553E+02 -7.685581736436E+02 -1.022898020465E+01 -1.224679898289E+01 -7.110352119995E+01 -6.515658841367E-01 -9.847297480117E+00 -1.514611392640E+03 -8.287433619930E+00 1.253000172178E+01 1.516826805781E+01 -2.708211098342E+00 3.874636365950E+01 7.503082808920E+01 1.744533655356E+00 1.642554613048E+01 6.869745993510E+01 8.035405687233E+00 2.240182028849E+02 2.620899778852E+03
 -9.292857395622E-02 -6.380135108025E-02 4.750517654601E+00 3.263921861671E-01 1.804070082945E-01 5.291840871525E-02 -7.801678375544E+00 -5.932709527192E+00 -7.665275691510E+01 -7.944917619914E-01 3.356805963213E-01 -1.105872418444E+01 -4.391605567941E+00 -8.837237699149E+00 -6.239414544640E+01 1.379722927338E-02 4.690607912032E-01 2.569305657428E-01 -2.944744234240E-01 9.772931684238E-01 9.717485681034E+00 3.937393932829E-01 -2.435411487772E+00 3.954440707040E-01 1.474836081968E+01 1.678448287219E+01 1.370375204600E+02
 1.799560767825E+00 -6.674702303511E-01 1.798367055138E-01 1.227962311537E+01 2.434084436236E+01 1.651136385407E+00 2.400357219436E+00 -1.356455948651E+01 5.347145585519E-02 -1.281934607698E+03 -4.360738054532E+02 -1.219339419028E+01 -1.405225931684E+03 4.879400135217E+02 -6.694234736061E+00 -5.433518754579E+00 -5.732567108547E+00 1.725632907845E+00 3.827829669487E+01 -3.975934199106E+00 3.436185230559E-01 -2.715979762966E+01 -6.831825069535E+01 -2.934777558101E+00 6.679225008419E+01 7.617970783926E+01 1.120835974019E+00 2.903167312345E+03
 1.048929764417E+00 -3.934386197851E-02 5.541801061251E-01 5.363226074722E+00 1.187558864495E+01 7.601552106918E-01 -4.031958761676E+00 -7.596662920456E+00 2.959309134343E+00 -4.501763461818E+02 -7.413812615282E+02 -5.540153561905E+00 5.160949366523E+02 -8.484234272198E+02 -3.621827462649E-01 -2.732199245690E+00 -4.230720661423E+00 -4.100548186747E-02 -7.083546260630E+01 -4.599121862339E+00 -1.482097674583E+00 3.223871758997E+01 4.563033056751E+01 -2.225533581634E+00 9.056055253260E+01 4.097957055924E+01 -1.902476333638E+00 -9.556412484377E+01 2.354578548194E+03
 -9.079390765382E-02 -8.228284724542E-02 4.600048085780E+00 3.153098168807E-01 3.712141115171E-01 6.048857774333E+00 1.240361683924E+00 1.697861516918E-02 -1.144168079823E+01 -1.184216098105E+01 -5.849080656097E+00 -7.248429427569E+01 -7.161248942085E+00 -1.062238607310E+00 -6.437713528128E+01 -7.093358938169E-02 2.182043925786E-01 1.489626036993E-01 -2.241271290479E-01 3.556515592571E-01 1.069506844013E+01 -7.990606246977E-02 -1.886605426322E+00 6.182278633513E+00 3.368402052383E-01 1.778508454907E+00 1.351835315844E+01 1.947518038778E+01 9.690638909468E+00 1.371932347595E+02
 -4.340593859524E-01 2.262008020800E-01 3.810295328775E-02 -3.263694034327E+00 -6.259728166382E+00 -6.453988709933E-01 -1.588765029815E+00 3.328735055497E+00 4.483182785143E-01 -4.798644364853E-01 -8.408752387871E+00 3.276389553416E-01 -2.145055687219E+00 1.265264601316E+01 2.462689195830E-01 1.382376151013E+00 1.173895519234E+00 -5.722939980916E-01 6.356334370528E-01 5.346473028839E-01 -1.149551502097E-01 1.475314165902E+00 8.655771164929E+00 4.694970207567E-01 -4.112978946374E+00 -1.980165244141E+01 -6.778389563932E-01 7.404021669497E+00 5.592819355307E+00 -2.607415059955E-01 2.783403963700E+03
 3.420227491837E-02 -6.033390094078E-02 -9.707013469443E-02 6.979483168445E-01 1.166247943894E+00 7.374057810827E-02 1.075177171682E+00 -4.776058149167E-01 -4.277944752590E-01 -2.751445284750E-01 1.655276255751E+00 -2.200239693709E-01 -8.706392217328E-03 -2.017348873053E+00 -1.195352116527E-01 -2.335341332363E-01 -4.359418767262E-02 2.095665053063E-01 -2.353402923610E-01 2.685009665041E-01 1.326132264666E-01 -8.919570213839E-02 -2.110888908834E+00 7.078221435371E-03 5.708066853308E-01 3.923107946863E+00 4.653032616101E-01 -8.784599088591E-01 -1.614799273864E+00 2.248486874932E-01 5.301899309290E+01 2.797096754713E+03
 9.831278261974E-03 -4.584930615009E-02 -4.138737966492E-02 2.991425991719E-01 4.453061871718E-01 4.615997038112E-02 6.625872724516E-01 -1.430340650052E-01 -2.727712810753E-01 -2.252930899526E-01 6.250980022490E-01 -1.275654224602E-01 -3.315384363291E-01 -7.331826693886E-01 -6.776291253516E-02 -9.872389363044E-02 9.468957456243E-02 4.781506685175E+00 -1.156522503092E-01 2.336477129065E-01 8.112154105040E-02 1.511915653900E-02 -1.178854749719E+00 8.225137133955E-02 -3.599314510134E-02 1.639106967732E+00 2.759318723498E-01 -1.740552478250E-01 -9.867764690486E-01 1.411993807596E-01 5.239346472248E-01 -1.934440591352E+01 1.916767239488E+02
 -6.123727824653E-01 -3.894918703548E-02 -3.701745032052E-01 -3.151631769688E+00 -7.043760968659E+00 -3.665235408739E-01 2.838838688589E+00 4.595720159784E+00 -2.157081583508E+00 -3.057899314592E+00 -9.013880030605E+00 -7.865913837198E-01 -6.579912256072E-01 1.933477976380E+01 -2.609190583259E-01 1.633311481157E+00 2.694346970667E+00 1.793000064982E-01 5.877715054522E-02 2.999333817615E+00 6.224282407622E-01 2.626972638156E+00 1.268579243761E+01 1.796652768471E+00 -1.700385170249E+00 -2.492960752452E+01 1.827118029819E+00 1.182768073690E+01 8.338476198101E+00 1.102233545521E+00 3.921414590237E+01 7.549120950501E+01 -2.570769693409E-01 2.429763640459E+03
 1.985162597194E+00 -4.312895213285E-01 5.723897019159E-01 1.164754735725E+01 2.409536435530E+01 1.513972583195E+00 -2.460730030983E+00 -1.437897725900E+01 2.415948913238E+00 5.986469492517E+00 3.138079741325E+01 5.762648589247E-01 9.918580200336E+00 -5.458556346420E+01 -1.074973430049E-01 -5.538363906656E+00 -7.015361008661E+00 1.023434620282E+00 -1.210188074265E+00 -6.290547017010E+00 -7.219936671658E-01 -7.427940996025E+00 -3.153823629439E+01 -3.836188937552E+00 1.530497330086E+01 7.651370267904E+01 -1.367425824157E+00 -3.436954881177E+01 -1.884180340551E+01 -1.144057476732E+00 8.771101659249E+00 -2.736524299551E+00 -8.630216114156E-01 2.466968264282E+02 2.813005155823E+03
 -7.392601997889E-02 1.677904940912E-02 -3.188225952659E-02 -4.066604509095E-01 -9.309146235419E-01 -5.481318873347E-02 2.541884727530E-01 5.681433595715E-01 -1.481361972988E-01 -2.843535706517E-01 -1.155117386151E+00 -4.719786372135E-02 -5.447504254160E-01 2.045967373116E+00 -7.903153450698E-03 1.724697586018E-01 3.014240707843E-01 -2.468934464908E-02 1.474979888402E-02 3.074701351801E-01 4.496229866528E-02 3.131685764692E-01 9.448848415548E-01 1.715162020850E-01 -7.027112148922E-01 -2.730623937350E+00 1.046159724095E-01 1.373777292999E+00 4.696133425155E-01 7.217890288139E-02 -5.619757825710E-01 2.344901716575E-01 1.124354259723E+01 -1.155053575675E+00 -3.207322718560E+01 1.442871821306E+02
 -2.043062069355E+01 -3.382626148057E+01 9.797643146717E-02 3.539078169882E+01 -3.797516924369E+00 -2.599874935762E-01 -6.527747218172E-01 1.765652443192E+00 1.555678971547E-01 -3.521734054929E-01 -4.358167098514E+00 1.515243422109E-01 -1.256701558244E+00 6.650962998306E+00 1.111989161290E-01 -1.244461215203E+03 -4.324063254570E+02 -2.299100174994E+00 3.110979965881E-01 3.628781825806E-01 -8.426353121123E-03 8.350118356395E-01 4.336388279042E+00 1.963919767211E-01 -2.223320170386E+00 -1.023520321573E+01 -2.718630704678E-01 3.969823130263E+00 2.731974200825E+00 -9.566776323313E-02 -2.065052430692E+01 3.435133043458E+01 -2.346273542331E-01 -1.628200738463E+00 4.642673805982E+00 -1.592473692547E-01 2.781605819520E+03
 3.575026565835E+01 5.996362922563E+01 -1.800202836967E-01 -6.482666285751E+01 2.768411689685E+00 2.883149828487E-01 -5.863681288330E-01 -1.228425166905E+00 3.226512885759E-01 6.566357877262E-01 2.550089226360E+00 8.437758204766E-02 1.339202672351E+00 -4.500944473974E+00 1.513429525506E-02 -4.415711183323E+02 -7.221251725620E+02 1.107557367377E+00 -6.798342199164E-02 -7.047407857827E-01 -6.275198475977E-02 -6.624162657728E-01 -1.918152261658E+00 -4.395861546338E-01 1.678454597903E+00 6.045119285042E+00 -2.083098456723E-01 -3.034027117577E+00 -9.245618177304E-01 -1.707337126894E-01 -3.298981696528E+01 5.875916785242E+01 -4.748724302875E-01 4.701435752575E-01 -2.510930502544E+00 1.319655570511E-01 3.046977294128E+01 2.805744986734E+03
 -2.530697760925E-01 -4.842946130435E-01 9.325498267829E+00 3.829401271585E-01 2.045393858597E-01 6.902086144080E+00 3.313544336941E-02 -6.373767687987E-02 -1.790484879402E-03 5.447993278078E-03 1.374259724386E-01 -2.906949246130E-03 5.586418054317E-02 -1.902783672815E-01 -2.394905395354E-03 -1.633119399207E+00 1.420907336029E+00 -8.199516491725E+01 -3.681059317375E-02 5.578727452366E-03 4.663074851324E+00 -1.063553025202E-01 -9.211653194826E-02 5.086544219543E+00 8.610357826068E-02 2.937435396026E-01 5.228403590689E-03 -1.125893994607E-01 -5.836043535856E-02 2.035573617069E-03 2.456807185664E-01 -5.092174516621E-01 9.417858033772E+00 8.458176286788E-02 -1.195018608344E-01 6.059177359178E-03 6.070474443267E+00 -1.194528372136E+01 1.914837562775E+02
 -4.998755755145E-01 2.158440432833E-01 4.127727514679E-02 -2.115290663204E+01 -3.727932362359E+01 -2.450808811950E-01 -1.560326584075E+00 3.900795648645E+00 3.973793788858E-01 -6.662673218728E-01 -9.669650411279E+00 3.330495944458E-01 -2.537183543769E+00 1.481743959222E+01 2.644301320063E-01 1.599381326785E+00 1.562979119636E+00 -4.825555203957E-01 6.997290545677E-01 7.614999844511E-01 -1.207738396858E-01 1.730504637384E+00 9.871035537147E+00 6.790218127527E-01 -4.763360477140E+00 -2.290828431049E+01 -6.839468965828E-01 8.746694957126E+00 6.353520964306E+00 -2.360545942827E-01 3.864732064571E+01 -7.067297776016E+01 7.297181634210E-01 -2.406465960030E+01 4.388248629140E+01 -8.126190416704E-01 3.735347865994E+01 6.687594531800E+01 -5.919910769828E-01 2.734792411346E+03
 6.484746616972E-01 -2.164526173966E-01 1.778048343524E-01 3.320061484130E+01 5.873927041390E+01 -2.869547775129E-01 -1.865141042854E-01 -4.801922104164E+00 3.988128586438E-01 1.647094004085E+00 1.089560813997E+01 3.570252996550E-02 4.091012481021E+00 -1.771046031212E+01 -1.212139282002E-01 -1.750989811102E+00 -2.087959576402E+00 5.825694791741E-01 -4.792692901870E-01 -1.797337361787E+00 -1.137948783916E-01 -2.393922735542E+00 -9.913019348092E+00 -1.003312669827E+00 6.076311459656E+00 2.554314194218E+01 -5.425119504711E-02 -1.121573265267E+01 -5.669049675319E+00 -1.669938592282E-01 2.765971524491E+00 -4.818632792803E-01 -6.809490220389E-02 -3.219161737391E+01 4.773780888951E+01 -3.561236239157E-01 1.520708444548E+00 -1.032326935035E+00 6.143551863322E-02 3.584526478647E+01 2.764407978938E+03
 1.060810483962E-01 5.292229520096E-02 6.908453144169E-02 -5.813122412047E-01 -7.679410321156E-01 6.393263928072E+00 -9.079190001981E-01 -2.543755560220E-01 4.089288751383E-01 4.530423359709E-01 1.427014053295E-01 1.746292635669E-01 9.069809362141E-01 -6.006606584432E-01 8.219402992916E-02 -1.227751807896E-01 -4.629521540212E-01 -8.410958658865E+00 8.992351244714E-02 -4.623871916597E-01 -1.222038424247E-01 -2.903013089854E-01 7.993938978632E-01 4.571687018561E+00 6.886832344230E-01 8.284346312237E-02 -3.807320526301E-01 -7.951056106745E-01 9.023855487213E-01 -2.073907951736E-01 4.566188701029E-01 -2.070558249374E-01 8.362029096794E+00 -3.045309627487E-01 -3.546959872667E-01 1.085922589666E+01 5.174831705327E-02 1.724422726425E-01 9.337828313106E+00 7.341669825973E+00 -2.910017621422E+01 1.866229791257E+02
 1.623276009966E+00 -4.273702853820E-01 3.349821276027E-01 9.459629589194E+00 1.927622022568E+01 1.384062353336E+00 -1.114135436975E+00 -1.138872507848E+01 1.151983512227E+00 4.157703198823E+00 2.504344377562E+01 1.185834834571E-01 9.631020697499E+00 -4.173023088090E+01 -2.483571998701E-01 -4.503170426148E+00 -5.396480046057E+00 1.010835997309E+00 -1.113069821406E+00 -4.534453942091E+00 -3.664752746051E-01 -5.805129370960E+00 -2.240338157615E+01 -2.763562454231E+00 1.421812470665E+01 5.934174078927E+01 -3.048865512492E-01 -2.675634157448E+01 -1.274652425252E+01 -5.002015941629E-01 -1.156425823021E+03 3.923455025756E+02 -3.883330456166E+00 -5.101674021746E+02 -3.185714122594E+01 1.142048530668E+00 3.629120546422E+00 -2.138621363505E+00 -1.730717873952E-01 8.097548163869E+00 -9.152010878216E+00 -1.147325467120E-01 2.686736146954E+03
 -1.410694785634E+00 3.971582001648E-01 -2.536309110537E-01 -8.535384657837E+00 -1.727653655879E+01 -1.056637902581E+00 4.543037616313E-01 1.007670645555E+01 -8.100505065708E-01 -3.467302592928E+00 -2.254856215149E+01 -8.551720167257E-03 -8.575413561935E+00 3.698730742710E+01 2.667292429450E-01 3.992263249947E+00 4.689832321730E+00 -9.771628884071E-01 1.066525073500E+00 3.798525853905E+00 2.535612547006E-01 5.046726862823E+00 2.023537399554E+01 2.398462350491E+00 -1.279438314568E+01 -5.316432189590E+01 5.925669895909E-02 2.355636737206E+01 1.160810787763E+01 3.310178522037E-01 4.006725714182E+02 -6.858847900881E+02 6.098376543290E+00 -2.184790977223E+01 -1.686547811085E+03 1.893364707351E+01 -3.129896907218E+00 1.977746019026E+00 1.854970280985E-01 -6.960504902499E+00 8.181934509393E+00 7.562497059342E-02 5.334229527645E+01 2.971951151486E+03
 8.012086879175E-02 9.072902802732E-02 1.595463219666E-01 -5.822718014439E-01 -5.602769404935E-01 -9.488749284828E-02 -2.314390467408E+00 -9.210268539464E-02 9.871879971681E-01 9.410468381613E-01 -9.188841850457E-01 4.414769685378E-01 1.487736853691E+00 3.943052133736E-01 2.180498564694E-01 7.523454005281E-02 -4.481582469327E-01 -3.002158976026E-01 3.618751658107E-01 -9.885626980270E-01 -2.946647447926E-01 -3.166328452809E-01 2.786346527272E+00 -4.139498889204E-01 7.145650756111E-01 -2.612968446991E+00 -9.572359689879E-01 -7.167166506345E-01 2.629315324903E+00 -5.072970759486E-01 -3.050022401842E+00 5.159555459760E+00 -8.002351664425E+01 -1.781124018545E+00 2.155281898466E+01 -7.615156795637E+01 2.923664372754E-01 3.051065002423E-01 4.327775671004E+00 5.749509998437E-01 4.337865344237E-02 -9.341812459076E+00 -1.288038488317E+00 -3.222589921845E+01 1.753917856436E+02
 3.480621215064E-01 -9.489118669017E-02 -1.509398213001E-02 2.117576672609E+00 4.215018752490E+00 6.088054265091E-01 3.669379202863E-02 -2.419888145308E+00 1.473317158634E-01 7.908121627609E-01 5.460553910916E+00 -4.572930936536E-02 1.840050078069E+00 -9.042208403942E+00 -7.914507526853E-02 -2.013359195475E+01 3.265675355426E+01 -8.000903880011E-02 -2.982732672551E-01 -8.590319730993E-01 -5.965920664123E-02 -1.184241758887E+00 -5.175233482488E+00 -5.987042095747E-01 2.912496286761E+00 1.310656881374E+01 4.281036861380E-02 -5.650060526933E+00 -3.118543517385E+00 -5.786488005599E-02 -1.269070576992E+03 -4.495340690236E+02 2.636232089032E+00 1.978710054061E+00 -5.957452577737E+00 1.524891964383E-01 -1.172089440512E+03 4.155208540089E+02 -3.560057380481E+00 -4.678305742532E+02 -1.593619034441E+00 -5.501073540788E-01 -2.397009233567E+01 -2.937065511627E+01 2.675721771977E-01 2.792837857412E+03
 -1.476725791608E-01 3.334831017882E-02 -2.099527538645E-02 -7.516856740017E-01 -1.734104744281E+00 -2.177701775963E-01 2.555033370705E-01 1.090442668686E+00 -1.804104443883E-01 -4.428547085718E-01 -2.287800683032E+00 -4.180775517608E-02 -8.566439104057E-01 4.021285953105E+00 1.068182085192E-02 -3.250332597956E+01 5.865074715600E+01 -2.714883025790E-01 8.243282851250E-02 4.925350198498E-01 3.330081510849E-02 5.470439744633E-01 2.088985271024E+00 3.819126269567E-01 -1.269366432010E+00 -5.573758827696E+00 8.658392498831E-02 2.594582457826E+00 1.203206751430E+00 8.939652889492E-02 -4.486650388902E+02 -7.394891315432E+02 4.956234650546E+00 -8.305286847298E-01 2.462970685999E+00 -3.627072462531E-01 4.126195474533E+02 -7.034017043887E+02 4.464085134073E+00 3.123894457574E+00 -1.470322081959E+03 1.395620395678E+01 3.551337728166E+01 5.655261068475E+01 -3.622620883694E-01 3.492995461452E+01 2.797883240576E+03
 2.812776359115E-02 6.168137272775E-02 4.511000246678E+00 -1.693703834297E-01 -3.181498700400E-01 -8.223101109897E+00 -3.445816549116E-01 9.545830666101E-02 1.460672430102E-01 1.067490552831E-01 -3.895380065045E-01 6.916673582088E-02 1.515996338326E-01 4.685508582901E-01 3.720983704472E-02 9.521356276577E-02 -8.316808071131E-02 8.526711034017E+00 5.719822309953E-02 -1.007335257626E-01 -4.312286664270E-02 1.405018809678E-02 6.681057271394E-01 -4.046465819435E-02 -1.427742008829E-02 -9.892771804126E-01 -1.492546713149E-01 1.463311149957E-01 5.485960728384E-01 -7.589540995832E-02 3.101807463642E+00 5.074638336114E+00 -8.472887578796E+01 -4.068367681983E-01 4.845616210752E-01 -9.796742125260E+00 -3.644021628766E+00 4.234461734074E+00 -8.040035629005E+01 -6.125251448640E-01 1.368174776196E+01 -8.148070541204E+01 1.798498782665E-02 -7.039954788500E-01 1.080300006141E+01 1.125603104087E+00 -2.293613815891E+01 1.917549567304E+02
 1.260857043207E+00 -2.582568154816E-01 3.318529263935E-01 6.900135185705E+00 1.435036155360E+01 7.542256606594E-01 -2.097440928826E+00 -8.691661643739E+00 1.400367356968E+00 3.660493666835E+00 1.850995645623E+01 3.261791890203E-01 8.066240244912E+00 -3.150130469009E+01 -7.529750051996E-02 -3.362345746809E+00 -4.379355175404E+00 6.368140975729E-01 -6.518694522149E-01 -3.988314256116E+00 -4.301405900411E-01 -4.560148337687E+00 -1.553179780245E+01 -2.356744206081E+00 1.113693322418E+01 4.368399584816E+01 -7.354984949014E-01 -2.070419542196E+01 -8.298853623822E+00 -6.495126691026E-01 5.873123643994E+00 -1.288576203990E+00 -5.867838732051E-01 -1.262777474167E+03 -4.868624568953E+02 4.814899235035E+00 2.821396703923E+00 -1.496141490749E+00 -1.237383671189E-01 -1.175518054656E+03 4.002982958499E+02 -7.536102173740E+00 3.320397838767E+01 1.330084219920E+01 1.238447867751E+00 3.388455966673E+01 1.505955056680E+00 4.957061390558E-01 2.790156666052E+03
 -1.829872392114E+00 5.499934766103E-01 -3.594210611919E-01 -1.130437188513E+01 -2.283981334462E+01 -1.506596518377E+00 2.012692819930E-01 1.325896725920E+01 -9.466132133725E-01 -4.453208456543E+00 -2.986481939581E+01 2.398913383973E-02 -1.043257650689E+01 4.916155828373E+01 3.762257524978E-01 5.223136586012E+00 6.032439042927E+00 -1.425117520162E+00 1.448207275352E+00 4.842540858629E+00 3.005591759676E-01 6.619607766874E+00 2.799985935075E+01 2.998645532135E+00 -1.611127307301E+01 -7.094442850676E+01 -1.493226791615E-02 3.094967479455E+01 1.647661189588E+01 3.801363425637E-01 -7.895799023684E+00 1.311736145694E+00 4.092385613870E-01 -4.678626513539E+02 -7.283791974254E+02 7.508269108614E+00 -4.098347822327E+00 2.653147092367E+00 1.057469846985E-01 3.971845969377E+02 -6.781163919680E+02 9.145645270643E+00 -5.563588407496E+01 -2.127034213147E+01 -4.143692976632E-01 7.172638167542E+01 -2.385179172154E+00 5.376566866337E-02 8.372888028110E+01 2.841261846967E+03
 -5.179411355126E-02 -2.652881845673E-01 -3.501426650119E-01 2.097709731562E+00 2.915870724604E+00 4.094744266169E+00 5.399053613724E+00 -7.015660263511E-01 -2.251236553238E+00 -1.898965833330E+00 4.165785395084E+00 -1.037854033454E+00 -2.949212562104E+00 -4.399871372800E+00 -5.405569436773E-01 -5.476257054418E-01 6.727258600504E-01 8.000468020298E-01 -9.460477521516E-01 1.982928898945E+00 6.698722077714E-01 2.908916489227E-01 -8.621609418560E+00 7.596186465645E-01 -7.434734003165E-01 1.109140951277E+01 2.249128607225E+00 -4.664147684459E-01 -7.460620625845E+00 1.162344322730E+00 -9.827971305261E-01 8.579523866570E-01 -8.988899420992E+00 9.728602826233E+00 2.293423019749E+00 -7.114129112209E+01 -3.206778716716E-01 -8.035234560034E-01 4.254370337833E+00 -8.985102781858E+00 7.824350704300E+00 -8.106773884907E+01 -2.476408362453E+00 2.582178144500E+00 7.910142487893E+00 -8.850262488507E-01 6.462330086733E-01 8.756509756748E+00 -9.079874141014E-02 -3.756838116550E+01 1.791326004440E+02
 -6.137046085953E-01 7.520081717859E-02 -3.056969287913E-01 -1.038160570610E+03 3.441432033554E+02 -1.413699467040E+01 2.081574416143E+00 4.032262770274E+00 -1.167541574522E+00 -2.163391310540E+00 -8.094575022775E+00 -4.651232375699E-01 -4.152540859562E+00 1.446201617733E+01 -8.324430918222E-02 3.380699293364E+01 1.828711084334E+00 2.489107963381E-01 1.070390390909E-01 2.311464607886E+00 3.616994648827E-01 -1.626867651649E+01 4.144483562464E+01 7.063826556918E-01 -5.161738221905E+00 -1.905315772199E+01 8.622162063604E-01 9.864115360325E+00 2.917977698403E+00 5.680646470456E-01 -2.951195303158E+00 8.542443509822E-01 4.141981767224E-01 -1.481683691532E+00 7.992698011436E+00 -2.171303353205E-01 -1.395739218989E+00 5.443048935014E-01 1.934805275266E-02 -1.213269748790E+03 -4.250547426565E+02 5.165580963638E-01 6.752700764500E+00 -6.238991659523E+00 -1.052721940107E+00 4.168508857652E+01 -6.697118489074E-01 -1.940114598393E-01 -1.454157792029E+01 -4.214288328231E+01 3.331877619709E+00 2.615772209380E+03
 -1.958142524355E-01 -1.804076747850E-01 -3.723905886590E-01 3.664425674305E+02 -6.320701795161E+02 1.025668827132E+01 4.796866200470E+00 5.493483012582E-01 -2.086110910597E+00 -2.079605115594E+00 1.310487658917E+00 -9.372335028311E-01 -2.048163587815E+00 1.096905811038E+00 -4.415182173764E-01 5.565623016638E+01 3.831546458387E-01 1.272373768132E+00 -7.384000845404E-01 2.180096160461E+00 6.240630418707E-01 -3.112626428389E+01 5.709443854449E+01 2.868895668676E-01 -6.515087266914E-01 2.868595220559E+00 2.019783241913E+00 2.351719353425E+00 -3.701016044575E+00 1.079485030262E+00 -1.612866656440E+00 1.077780198276E+00 6.861333547118E-01 2.597743176082E+00 -2.228683362712E+00 4.059722188730E-01 -5.764405413088E-01 -4.737176323196E-01 -1.013208243691E-01 -4.446309389083E+02 -7.148390559451E+02 6.501623428477E+00 -9.786211553808E-01 3.964845223391E-01 -2.252174234406E+00 -6.745542930193E+01 1.910150092086E-01 -4.530023800235E-01 2.985476646335E+01 5.688152957780E+01 4.889327659177E+00 2.719583112179E+01 2.871561550856E+03
 -8.346037220322E-02 2.529057067209E-01 3.981364508070E+00 -1.457517941569E+01 8.920556258361E+00 -7.477988839034E+01 -3.012286900400E+00 -2.170528557136E-01 1.304581330895E+00 1.480702486784E+00 -6.028583910136E-01 5.443764874679E+00 2.393139608194E+00 -2.292898037089E-01 2.798878360661E-01 2.315669539116E-01 -5.743654265437E-01 6.162208099673E+00 3.422324498286E-01 -1.599007929044E+00 -3.908402451106E-01 -1.144485550343E+00 3.908100307195E+00 1.000564517379E+01 1.420983024271E+00 -2.309549429249E+00 -1.247718773125E+00 -1.546428403645E+00 3.357723016601E+00 -6.659119628635E-01 1.022951273431E+00 -4.474329016216E-01 4.343127027883E+00 -2.589332647266E+00 1.980991266563E+00 4.438608138588E+00 6.771663639013E-01 2.196985980079E-01 -8.274656591895E+00 2.261267359088E+00 7.777022240291E+00 -7.843822871757E+01 5.596746363051E-01 -2.667816502281E-01 1.404547928281E+00 6.131806015511E-01 -3.049175433761E-01 7.848378528789E+00 7.635652697364E-01 -4.329668069447E-01 6.810856086254E+00 1.401639007717E+01 -5.181135878186E+01 1.806713356940E+02