#BIOSYM hessian 1
@Type: Hessian Update
@Units
 distance: 	A
 energy: 	Kcal/Mol
#header
@natom 66

#label
C1      C2      C3      C4      C5      C6      C7      C8      C9      C10     C11     C12     C13     C14     C15     C16     C17     C18     C19     C20     C21     C22     C23     H24     C25     C26     C27     C28     C29     C30     C31     C32     C33     C34     C35     C36     C37     C38     C39     C40     C41     C42     C43     C44     C45     C46     C47     C48     C49     H50     H51     H52     H53     H54     H55     H56     H57     H58     H59     H60     H61     H62     H63     H64     H65     H66

#element
C  C  C  C  C  C  C  C  C  C  C  C  C  C  C  C  C  C  C  C  C  C  C  H  C  C  C  C  C  C  C  C  C  C  C  C  C  C  C  C  C  C  C  C  C  C  C  C  C  H  H  H  H  H  H  H  H  H  H  H  H  H  H  H  H  H 

#matrix
198
 2.774205639806E+03
 -1.668551150441E+01 2.811914731061E+03
 0.000000000000E+00 0.000000000000E+00 0.000000000000E+00
 4.121594986305E+01 6.825628845983E+01 0.000000000000E+00 2.795037788921E+03
 -1.486453319793E+00 -8.036938899953E-01 0.000000000000E+00 -2.260617980312E+01 2.766015481131E+03
 0.000000000000E+00 0.000000000000E+00 0.000000000000E+00 0.000000000000E+00 0.000000000000E+00 0.000000000000E+00
 -1.626660760496E+01 3.291169256908E+01 0.000000000000E+00 -2.830064377928E+00 8.154824557805E-01 0.000000000000E+00 2.799760041474E+03
 -3.674633266511E+01 5.701778506466E+01 0.000000000000E+00 3.915608786699E+00 -3.906871527256E+00 0.000000000000E+00 8.034289467081E+00 2.712197064984E+03
 0.000000000000E+00 0.000000000000E+00 0.000000000000E+00 0.000000000000E+00 0.000000000000E+00 0.000000000000E+00 0.000000000000E+00 0.000000000000E+00 0.000000000000E+00
 3.382424307625E+01 -6.952933774018E+01 0.000000000000E+00 -1.441169667998E+01 3.101365038055E+01 0.000000000000E+00 4.084451597581E+01 5.663468370182E+01 0.000000000000E+00 2.798733438342E+03
 -5.727483537909E+00 -2.497045040824E+00 0.000000000000E+00 -2.631693610095E+01 5.428880481250E+01 0.000000000000E+00 -6.359063767519E-01 -1.481182903831E+01 0.000000000000E+00 -1.243673539088E+01 2.775810804585E+03
 0.000000000000E+00 0.000000000000E+00 0.000000000000E+00 0.000000000000E+00 0.000000000000E+00 0.000000000000E+00 0.000000000000E+00 0.000000000000E+00 0.000000000000E+00 0.000000000000E+00 0.000000000000E+00 0.000000000000E+00
 -8.122824501386E+00 -6.051032145008E+00 0.000000000000E+00 1.099313140282E+01 -8.528828678718E+00 0.000000000000E+00 3.700002168608E+01 -1.087994565770E+02 0.000000000000E+00 -4.732847365904E+01 6.018023168160E+00 0.000000000000E+00 2.523110685285E+03
 1.643859864899E+01 1.004015680822E+01 0.000000000000E+00 -2.044147394209E+01 1.627146478343E+01 0.000000000000E+00 1.025299754939E+01 4.489218374768E+01 0.000000000000E+00 1.372791216077E+01 1.195973124058E+02 0.000000000000E+00 -7.450666179729E+01 2.856405971476E+03
 0.000000000000E+00 0.000000000000E+00 0.000000000000E+00 0.000000000000E+00 0.000000000000E+00 0.000000000000E+00 0.000000000000E+00 0.000000000000E+00 0.000000000000E+00 0.000000000000E+00 0.000000000000E+00 0.000000000000E+00 0.000000000000E+00 0.000000000000E+00 0.000000000000E+00
 -1.217171859857E+03 4.428417899778E+02 0.000000000000E+00 -4.665906505508E+02 -6.826627452413E+00 0.000000000000E+00 -1.594929636240E+00 4.773864657724E+00 0.000000000000E+00 4.830249647591E+00 5.058008703833E+00 0.000000000000E+00 9.632317249412E+00 -1.846580555408E+01 0.000000000000E+00 2.815135432824E+03
 4.374785144805E+02 -7.345339665766E+02 0.000000000000E+00 -8.192779567249E+00 -1.429704355324E+03 0.000000000000E+00 -1.040208547008E+00 2.536230532580E+00 0.000000000000E+00 3.127757362624E+00 4.348589662036E+00 0.000000000000E+00 7.219406064296E+00 -1.347852241475E+01 0.000000000000E+00 4.882858218944E+00 2.774389583594E+03
 0.000000000000E+00 0.000000000000E+00 0.000000000000E+00 0.000000000000E+00 0.000000000000E+00 0.000000000000E+00 0.000000000000E+00 0.000000000000E+00 0.000000000000E+00 0.000000000000E+00 0.000000000000E+00 0.000000000000E+00 0.000000000000E+00 0.000000000000E+00 0.000000000000E+00 0.000000000000E+00 0.000000000000E+00 0.000000000000E+00
 -1.196470181013E+03 -4.166805342408E+02 0.000000000000E+00 5.933156996199E-01 -2.991997005295E-01 0.000000000000E+00 -1.236857641346E+03 4.411977817266E+02 0.000000000000E+00 -4.758592556521E+02 -7.946496601175E+00 0.000000000000E+00 -7.608263406920E-01 -2.167733887461E-01 0.000000000000E+00 -2.021626641958E+01 -3.183502077643E+01 0.000000000000E+00 2.794147702621E+03
 -4.082781761344E+02 -6.949371803193E+02 0.000000000000E+00 -8.051149157751E+00 4.834276342810E+00 0.000000000000E+00 4.461821435511E+02 -7.246786127792E+02 0.000000000000E+00 3.972808835371E+00 -1.438988848422E+03 0.000000000000E+00 3.628289833547E+01 -6.290537787010E+01 0.000000000000E+00 2.861076600396E+01 5.259722374530E+01 0.000000000000E+00 -1.775952235351E+01 2.753251713451E+03
 0.000000000000E+00 0.000000000000E+00 0.000000000000E+00 0.000000000000E+00 0.000000000000E+00 0.000000000000E+00 0.000000000000E+00 0.000000000000E+00 0.000000000000E+00 0.000000000000E+00 0.000000000000E+00 0.000000000000E+00 0.000000000000E+00 0.000000000000E+00 0.000000000000E+00 0.000000000000E+00 0.000000000000E+00 0.000000000000E+00 0.000000000000E+00 0.000000000000E+00 0.000000000000E+00
 5.502628266518E-01 5.110485544381E-02 0.000000000000E+00 -1.223712257919E+03 -4.205169138723E+02 0.000000000000E+00 1.609361471050E+00 8.312315647051E-02 0.000000000000E+00 -1.215839995876E+03 4.375877592641E+02 0.000000000000E+00 5.926143551486E-01 4.875389790511E-02 0.000000000000E+00 3.745218766280E+01 -4.772237848325E-01 0.000000000000E+00 3.951408973211E+01 1.564616895974E-01 0.000000000000E+00 2.802279091915E+03
 -3.267627576513E-01 -5.779312520329E-01 0.000000000000E+00 -4.228504983546E+02 -7.052885800390E+02 0.000000000000E+00 1.742347991002E+00 5.534540362645E-01 0.000000000000E+00 4.391308254878E+02 -7.355500309695E+02 0.000000000000E+00 -1.024313529431E+00 1.900855418121E+00 0.000000000000E+00 -6.649894797672E+01 8.360932674833E-01 0.000000000000E+00 6.750962777625E+01 1.010630727688E+00 0.000000000000E+00 2.465252928760E+00 2.798595431544E+03
 0.000000000000E+00 0.000000000000E+00 0.000000000000E+00 0.000000000000E+00 0.000000000000E+00 0.000000000000E+00 0.000000000000E+00 0.000000000000E+00 0.000000000000E+00 0.000000000000E+00 0.000000000000E+00 0.000000000000E+00 0.000000000000E+00 0.000000000000E+00 0.000000000000E+00 0.000000000000E+00 0.000000000000E+00 0.000000000000E+00 0.000000000000E+00 0.000000000000E+00 0.000000000000E+00 0.000000000000E+00 0.000000000000E+00 0.000000000000E+00
 -3.105750643349E-01 7.536408256074E+00 0.000000000000E+00 -1.787829233147E+00 4.638950041027E+00 0.000000000000E+00 -1.201820133296E+03 -3.960523327665E+02 0.000000000000E+00 2.145178451838E+01 2.267530031455E+01 0.000000000000E+00 -4.625647074903E+02 -9.032409223369E+01 0.000000000000E+00 -3.241364119890E+00 -3.007514304071E+00 0.000000000000E+00 -2.809896263065E+01 -6.122902765085E+01 0.000000000000E+00 -4.473546136723E+00 -2.230332991165E+00 0.000000000000E+00 2.363194879782E+03
 -1.193920137645E+01 -1.186326193418E+01 0.000000000000E+00 1.596772525337E+01 -1.259346246581E+01 0.000000000000E+00 -4.846034940020E+02 -7.562094385876E+02 0.000000000000E+00 -3.800821345985E+01 -4.320692351481E+01 0.000000000000E+00 -6.640226536269E+01 -1.649926229572E+03 0.000000000000E+00 1.254229215621E+01 1.187973700356E+01 0.000000000000E+00 3.762934378373E+01 1.155958915544E+02 0.000000000000E+00 2.266516329963E-01 -2.285736862510E+00 0.000000000000E+00 2.499580969277E+02 2.837665143832E+03
 0.000000000000E+00 0.000000000000E+00 0.000000000000E+00 0.000000000000E+00 0.000000000000E+00 0.000000000000E+00 0.000000000000E+00 0.000000000000E+00 0.000000000000E+00 0.000000000000E+00 0.000000000000E+00 0.000000000000E+00 0.000000000000E+00 0.000000000000E+00 0.000000000000E+00 0.000000000000E+00 0.000000000000E+00 0.000000000000E+00 0.000000000000E+00 0.000000000000E+00 0.000000000000E+00 0.000000000000E+00 0.000000000000E+00 0.000000000000E+00 0.000000000000E+00 0.000000000000E+00 0.000000000000E+00
 1.108609741514E+01 6.522411329863E+00 0.000000000000E+00 -1.416713692648E+01 1.095475578094E+01 0.000000000000E+00 -6.878599854696E-01 3.002879911483E+01 0.000000000000E+00 -1.204848543682E+03 -3.958240567111E+02 0.000000000000E+00 -1.196546759296E+03 3.274035315943E+02 0.000000000000E+00 -1.245821517967E+01 -9.195228897616E+00 0.000000000000E+00 4.012373219586E+01 -4.238342469993E+01 0.000000000000E+00 -1.948962663275E+01 -3.289415137390E+01 0.000000000000E+00 -2.861854214836E+00 1.087379211551E+02 0.000000000000E+00 2.772373556928E+03
 -7.469571793804E+00 -3.653892909159E+00 0.000000000000E+00 8.773234925147E+00 -7.081528836188E+00 0.000000000000E+00 2.233888092285E+00 -1.490949341181E+01 0.000000000000E+00 -4.516620011984E+02 -7.435141509270E+02 0.000000000000E+00 4.043068972136E+02 -7.128557497852E+02 0.000000000000E+00 8.334849112860E+00 5.642870634309E+00 0.000000000000E+00 -6.853486186355E+01 2.574184199855E+01 0.000000000000E+00 3.423137015374E+01 5.907185622435E+01 0.000000000000E+00 1.144288393502E+02 -6.748192432509E+01 0.000000000000E+00 1.413107241861E+01 2.846218736337E+03
 0.000000000000E+00 0.000000000000E+00 0.000000000000E+00 0.000000000000E+00 0.000000000000E+00 0.000000000000E+00 0.000000000000E+00 0.000000000000E+00 0.000000000000E+00 0.000000000000E+00 0.000000000000E+00 0.000000000000E+00 0.000000000000E+00 0.000000000000E+00 0.000000000000E+00 0.000000000000E+00 0.000000000000E+00 0.000000000000E+00 0.000000000000E+00 0.000000000000E+00 0.000000000000E+00 0.000000000000E+00 0.000000000000E+00 0.000000000000E+00 0.000000000000E+00 0.000000000000E+00 0.000000000000E+00 0.000000000000E+00 0.000000000000E+00 0.000000000000E+00
 2.785314679574E-01 1.075896463210E-01 0.000000000000E+00 -3.966384350318E-01 2.247956061224E-01 0.000000000000E+00 -6.878879417664E-01 4.886787666723E-01 0.000000000000E+00 7.007970888287E-01 8.654383849000E-01 0.000000000000E+00 1.394183877770E+00 -2.705024834846E+00 0.000000000000E+00 -2.453272088449E-01 -1.638728135259E-01 0.000000000000E+00 6.185462555092E-02 -9.892402426629E-01 0.000000000000E+00 2.968812677006E-02 9.449281771280E-02 0.000000000000E+00 1.105488106574E-01 2.086184435578E+00 0.000000000000E+00 -1.911865612615E+00 1.242850914052E+00 0.000000000000E+00 2.806019315105E+03
 6.174991485776E-02 -2.661409643749E-02 0.000000000000E+00 -1.796545706185E-02 6.034123531549E-02 0.000000000000E+00 2.973413335993E-01 4.008914165453E-01 0.000000000000E+00 2.749168963472E-01 2.647771109979E-01 0.000000000000E+00 6.494095076364E-01 -9.432249529595E-01 0.000000000000E+00 -1.459825257785E-01 1.149040111025E-02 0.000000000000E+00 -1.542776767977E-01 -1.838462068605E-01 0.000000000000E+00 -4.972592319411E-02 1.117421293280E-02 0.000000000000E+00 -8.626948887116E-01 2.352924404313E-01 0.000000000000E+00 -6.579371784973E-01 3.445448317890E-01 0.000000000000E+00 1.855137005629E+00 2.797899916095E+03
 0.000000000000E+00 0.000000000000E+00 0.000000000000E+00 0.000000000000E+00 0.000000000000E+00 0.000000000000E+00 0.000000000000E+00 0.000000000000E+00 0.000000000000E+00 0.000000000000E+00 0.000000000000E+00 0.000000000000E+00 0.000000000000E+00 0.000000000000E+00 0.000000000000E+00 0.000000000000E+00 0.000000000000E+00 0.000000000000E+00 0.000000000000E+00 0.000000000000E+00 0.000000000000E+00 0.000000000000E+00 0.000000000000E+00 0.000000000000E+00 0.000000000000E+00 0.000000000000E+00 0.000000000000E+00 0.000000000000E+00 0.000000000000E+00 0.000000000000E+00 0.000000000000E+00 0.000000000000E+00 0.000000000000E+00
 -1.331759517330E+00 -7.178840061971E-01 0.000000000000E+00 1.548508873715E+00 -1.169469895392E+00 0.000000000000E+00 7.765230477181E-01 -3.195047490214E+00 0.000000000000E+00 -3.482234463279E+00 -4.089416299674E+00 0.000000000000E+00 -7.469645114186E+00 1.372326583271E+01 0.000000000000E+00 1.365028865536E+00 9.254060177561E-01 0.000000000000E+00 2.015384579201E-01 4.553780463438E+00 0.000000000000E+00 -3.239968934375E-02 -2.298067085240E-01 0.000000000000E+00 3.724736249958E+00 -1.026735192527E+01 0.000000000000E+00 9.217193655206E+00 -5.798334688037E+00 0.000000000000E+00 4.172912984534E+01 7.136111617594E+01 0.000000000000E+00 2.791197396957E+03
 -1.821350208500E+00 -1.091101575906E+00 0.000000000000E+00 2.182413885281E+00 -1.648227451146E+00 0.000000000000E+00 1.635437751492E+00 -4.153899005037E+00 0.000000000000E+00 -4.753031992864E+00 -5.635844067160E+00 0.000000000000E+00 -1.008337962509E+01 1.877573530240E+01 0.000000000000E+00 1.872494429819E+00 1.438454409721E+00 0.000000000000E+00 1.610767684251E-01 6.437576533742E+00 0.000000000000E+00 -9.779722047753E-02 -3.419252070842E-01 0.000000000000E+00 4.002864579320E+00 -1.432540671206E+01 0.000000000000E+00 1.264010271221E+01 -8.026361071306E+00 0.000000000000E+00 -7.477318235391E-01 -1.704155147541E+00 0.000000000000E+00 2.812229267636E+02 2.853982122667E+03
 0.000000000000E+00 0.000000000000E+00 0.000000000000E+00 0.000000000000E+00 0.000000000000E+00 0.000000000000E+00 0.000000000000E+00 0.000000000000E+00 0.000000000000E+00 0.000000000000E+00 0.000000000000E+00 0.000000000000E+00 0.000000000000E+00 0.000000000000E+00 0.000000000000E+00 0.000000000000E+00 0.000000000000E+00 0.000000000000E+00 0.000000000000E+00 0.000000000000E+00 0.000000000000E+00 0.000000000000E+00 0.000000000000E+00 0.000000000000E+00 0.000000000000E+00 0.000000000000E+00 0.000000000000E+00 0.000000000000E+00 0.000000000000E+00 0.000000000000E+00 0.000000000000E+00 0.000000000000E+00 0.000000000000E+00 0.000000000000E+00 0.000000000000E+00 0.000000000000E+00
 -2.118906167692E+01 -3.485356226655E+01 0.000000000000E+00 3.960878907517E+01 -1.132760164793E+00 0.000000000000E+00 7.651087140902E-01 -1.751384933649E+00 0.000000000000E+00 -2.010570906635E+00 -2.393057803034E+00 0.000000000000E+00 -4.071291715295E+00 8.086740264587E+00 0.000000000000E+00 -1.251695189596E+03 -4.365180812961E+02 0.000000000000E+00 1.095982635382E-01 2.834348458102E+00 0.000000000000E+00 -1.536909613807E-01 -9.001319628491E-02 0.000000000000E+00 1.916540681962E+00 -6.746045000222E+00 0.000000000000E+00 5.214313665673E+00 -3.546162604277E+00 0.000000000000E+00 -1.938044503479E+01 3.391207814887E+01 0.000000000000E+00 -5.943081752168E-01 -8.838139184550E-01 0.000000000000E+00 2.787130998854E+03
 3.183033708857E+01 5.795278664877E+01 0.000000000000E+00 -6.369322102886E+01 -2.659077370326E+00 0.000000000000E+00 4.107608102127E+00 -7.968195696703E+00 0.000000000000E+00 -9.689598521960E+00 -1.172835796896E+01 0.000000000000E+00 -2.044334880968E+01 3.839834364758E+01 0.000000000000E+00 -4.367238860746E+02 -7.225318019730E+02 0.000000000000E+00 -2.740400639088E-01 1.359062270859E+01 0.000000000000E+00 -2.408319782901E-01 -8.186852144441E-01 0.000000000000E+00 7.698557341496E+00 -3.091316582223E+01 0.000000000000E+00 2.591037731051E+01 -1.646913445204E+01 0.000000000000E+00 -3.219547227968E+01 5.716519796088E+01 0.000000000000E+00 -2.774495228113E+00 -4.068227489542E+00 0.000000000000E+00 1.640119050082E+01 2.789895287573E+03
 0.000000000000E+00 0.000000000000E+00 0.000000000000E+00 0.000000000000E+00 0.000000000000E+00 0.000000000000E+00 0.000000000000E+00 0.000000000000E+00 0.000000000000E+00 0.000000000000E+00 0.000000000000E+00 0.000000000000E+00 0.000000000000E+00 0.000000000000E+00 0.000000000000E+00 0.000000000000E+00 0.000000000000E+00 0.000000000000E+00 0.000000000000E+00 0.000000000000E+00 0.000000000000E+00 0.000000000000E+00 0.000000000000E+00 0.000000000000E+00 0.000000000000E+00 0.000000000000E+00 0.000000000000E+00 0.000000000000E+00 0.000000000000E+00 0.000000000000E+00 0.000000000000E+00 0.000000000000E+00 0.000000000000E+00 0.000000000000E+00 0.000000000000E+00 0.000000000000E+00 0.000000000000E+00 0.000000000000E+00 0.000000000000E+00
 -2.586103821610E+00 -1.255652084636E+00 0.000000000000E+00 -1.606295363534E+01 -3.398046250374E+01 0.000000000000E+00 2.558240652386E+00 -5.763328216101E+00 0.000000000000E+00 -6.677581094300E+00 -8.072830563475E+00 0.000000000000E+00 -1.418944356782E+01 2.630667278450E+01 0.000000000000E+00 2.925816482739E+00 1.815205017367E+00 0.000000000000E+00 1.371488977927E-01 8.894871314259E+00 0.000000000000E+00 -1.245765733361E-01 -4.884225181017E-01 0.000000000000E+00 6.455576546928E+00 -2.008923264155E+01 0.000000000000E+00 1.770923521143E+01 -1.117275979327E+01 0.000000000000E+00 3.979537391370E+01 -6.902433593663E+01 0.000000000000E+00 -2.504690913889E+01 3.757029921246E+01 0.000000000000E+00 3.880791238938E+01 6.139935978719E+01 0.000000000000E+00 2.772771934824E+03
 -1.450814818762E+00 -6.639829508565E-01 0.000000000000E+00 3.575832859572E+01 5.498207853807E+01 0.000000000000E+00 1.536458277770E+00 -2.922463740620E+00 0.000000000000E+00 -3.374384932527E+00 -4.036445492770E+00 0.000000000000E+00 -7.025351897487E+00 1.339422480711E+01 0.000000000000E+00 1.095598095985E+00 6.938607465737E-01 0.000000000000E+00 9.598963022165E-02 4.535438987187E+00 0.000000000000E+00 -1.004726652336E-01 -1.657845696685E-01 0.000000000000E+00 2.099643132322E+00 -1.023149009031E+01 0.000000000000E+00 8.998115582052E+00 -5.826140144831E+00 0.000000000000E+00 1.521262973705E-01 2.051084603661E-01 0.000000000000E+00 -4.324647505858E+01 7.271446773958E+01 0.000000000000E+00 -5.215617135820E-01 -2.732711818061E+00 0.000000000000E+00 -3.118144112162E+01 2.754215159140E+03
 0.000000000000E+00 0.000000000000E+00 0.000000000000E+00 0.000000000000E+00 0.000000000000E+00 0.000000000000E+00 0.000000000000E+00 0.000000000000E+00 0.000000000000E+00 0.000000000000E+00 0.000000000000E+00 0.000000000000E+00 0.000000000000E+00 0.000000000000E+00 0.000000000000E+00 0.000000000000E+00 0.000000000000E+00 0.000000000000E+00 0.000000000000E+00 0.000000000000E+00 0.000000000000E+00 0.000000000000E+00 0.000000000000E+00 0.000000000000E+00 0.000000000000E+00 0.000000000000E+00 0.000000000000E+00 0.000000000000E+00 0.000000000000E+00 0.000000000000E+00 0.000000000000E+00 0.000000000000E+00 0.000000000000E+00 0.000000000000E+00 0.000000000000E+00 0.000000000000E+00 0.000000000000E+00 0.000000000000E+00 0.000000000000E+00 0.000000000000E+00 0.000000000000E+00 0.000000000000E+00
 8.521266841951E-01 4.715144966550E-01 0.000000000000E+00 -9.856591000144E-01 7.726195624828E-01 0.000000000000E+00 4.913172363905E-02 2.245181573162E+00 0.000000000000E+00 2.338099940660E+00 2.728095545274E+00 0.000000000000E+00 5.136690491066E+00 -9.332451439555E+00 0.000000000000E+00 -9.065844115053E-01 -5.929276602070E-01 0.000000000000E+00 -1.226293744404E-01 -2.989810750073E+00 0.000000000000E+00 -3.795347789809E-03 1.087441823118E-01 0.000000000000E+00 -3.677350084994E+00 7.348596420648E+00 0.000000000000E+00 -6.168748302454E+00 3.842986934096E+00 0.000000000000E+00 -1.233164561934E+03 4.341058073070E+02 0.000000000000E+00 -5.060281311666E+02 -1.584795804230E+01 0.000000000000E+00 4.366012607372E-01 1.781658810309E+00 0.000000000000E+00 1.342431939801E+00 7.177267794506E-01 0.000000000000E+00 2.847857857421E+03
 1.780622452878E+00 1.071993242467E+00 0.000000000000E+00 -2.168778291072E+00 1.611296372060E+00 0.000000000000E+00 -2.079419045531E+00 3.792736825682E+00 0.000000000000E+00 4.531291955555E+00 5.464839460468E+00 0.000000000000E+00 9.542139870777E+00 -1.796763358007E+01 0.000000000000E+00 -1.831489596490E+00 -1.472728166762E+00 0.000000000000E+00 -2.975855830024E-02 -6.286234520151E+00 0.000000000000E+00 1.451987327549E-01 3.492611630071E-01 0.000000000000E+00 -3.243001674588E+00 1.399141684987E+01 0.000000000000E+00 -1.210287287718E+01 7.735538768572E+00 0.000000000000E+00 4.352319268901E+02 -7.313886102283E+02 0.000000000000E+00 -2.532144081171E+01 -1.531162143849E+03 0.000000000000E+00 9.039009377547E-01 4.135082898592E+00 0.000000000000E+00 2.771218639778E+00 1.343295291184E+00 0.000000000000E+00 3.282297167766E+01 2.885999502642E+03
 0.000000000000E+00 0.000000000000E+00 0.000000000000E+00 0.000000000000E+00 0.000000000000E+00 0.000000000000E+00 0.000000000000E+00 0.000000000000E+00 0.000000000000E+00 0.000000000000E+00 0.000000000000E+00 0.000000000000E+00 0.000000000000E+00 0.000000000000E+00 0.000000000000E+00 0.000000000000E+00 0.000000000000E+00 0.000000000000E+00 0.000000000000E+00 0.000000000000E+00 0.000000000000E+00 0.000000000000E+00 0.000000000000E+00 0.000000000000E+00 0.000000000000E+00 0.000000000000E+00 0.000000000000E+00 0.000000000000E+00 0.000000000000E+00 0.000000000000E+00 0.000000000000E+00 0.000000000000E+00 0.000000000000E+00 0.000000000000E+00 0.000000000000E+00 0.000000000000E+00 0.000000000000E+00 0.000000000000E+00 0.000000000000E+00 0.000000000000E+00 0.000000000000E+00 0.000000000000E+00 0.000000000000E+00 0.000000000000E+00 0.000000000000E+00
 -6.172030775423E-01 -4.654319248068E-01 0.000000000000E+00 9.229333915644E-01 -6.658015141681E-01 0.000000000000E+00 8.506951312673E-01 -1.384726578688E+00 0.000000000000E+00 -1.784505321505E+00 -2.271394892246E+00 0.000000000000E+00 -3.962982897131E+00 7.332973924441E+00 0.000000000000E+00 -1.911212876982E+01 3.566414353082E+01 0.000000000000E+00 -1.891515074177E-01 2.667465882067E+00 0.000000000000E+00 -5.744725080061E-02 -1.624898526696E-01 0.000000000000E+00 1.204907330249E+00 -5.865746617350E+00 0.000000000000E+00 4.945284562641E+00 -3.059606064802E+00 0.000000000000E+00 -1.219457466090E+03 -4.247249036715E+02 0.000000000000E+00 -5.147432806215E-01 -7.157282060521E-01 0.000000000000E+00 -1.178779181200E+03 4.247621420000E+02 0.000000000000E+00 -4.730569787906E+02 -9.094039787769E+00 0.000000000000E+00 -1.931485444816E+01 -3.316886751293E+01 0.000000000000E+00 2.754611259954E+03
 1.328723157760E+00 8.337938725927E-01 0.000000000000E+00 -1.677104784963E+00 1.085505896398E+00 0.000000000000E+00 -1.738448104639E+00 2.412834995158E+00 0.000000000000E+00 3.119970135078E+00 3.854162205589E+00 0.000000000000E+00 6.505468051253E+00 -1.259452241931E+01 0.000000000000E+00 -3.430450427126E+01 5.734659612406E+01 0.000000000000E+00 2.056699350429E-01 -4.545272181573E+00 0.000000000000E+00 1.639697522365E-01 2.303003838823E-01 0.000000000000E+00 -1.853611314572E+00 1.059500846554E+01 0.000000000000E+00 -8.388269619084E+00 5.456227229318E+00 0.000000000000E+00 -4.278595765020E+02 -7.126463182506E+02 0.000000000000E+00 1.071241364405E+00 1.347587519022E+00 0.000000000000E+00 4.289644229185E+02 -7.160881264583E+02 0.000000000000E+00 1.522966682117E+00 -1.492968822848E+03 0.000000000000E+00 3.380628654453E+01 5.810158434174E+01 0.000000000000E+00 8.565169396873E-01 2.806547211940E+03
 0.000000000000E+00 0.000000000000E+00 0.000000000000E+00 0.000000000000E+00 0.000000000000E+00 0.000000000000E+00 0.000000000000E+00 0.000000000000E+00 0.000000000000E+00 0.000000000000E+00 0.000000000000E+00 0.000000000000E+00 0.000000000000E+00 0.000000000000E+00 0.000000000000E+00 0.000000000000E+00 0.000000000000E+00 0.000000000000E+00 0.000000000000E+00 0.000000000000E+00 0.000000000000E+00 0.000000000000E+00 0.000000000000E+00 0.000000000000E+00 0.000000000000E+00 0.000000000000E+00 0.000000000000E+00 0.000000000000E+00 0.000000000000E+00 0.000000000000E+00 0.000000000000E+00 0.000000000000E+00 0.000000000000E+00 0.000000000000E+00 0.000000000000E+00 0.000000000000E+00 0.000000000000E+00 0.000000000000E+00 0.000000000000E+00 0.000000000000E+00 0.000000000000E+00 0.000000000000E+00 0.000000000000E+00 0.000000000000E+00 0.000000000000E+00 0.000000000000E+00 0.000000000000E+00 0.000000000000E+00
 2.358015116177E+00 1.308401433096E+00 0.000000000000E+00 -2.831075493139E+00 2.116811294185E+00 0.000000000000E+00 -1.925571275487E+00 5.415699907084E+00 0.000000000000E+00 6.140108528142E+00 7.304353804262E+00 0.000000000000E+00 1.312830927778E+01 -2.429324324434E+01 0.000000000000E+00 -2.416231123453E+00 -1.765676173490E+00 0.000000000000E+00 -2.172037573519E-01 -8.228947508486E+00 0.000000000000E+00 1.131905172664E-01 4.394460267945E-01 0.000000000000E+00 -5.566995106253E+00 1.829040360184E+01 0.000000000000E+00 -1.634536441598E+01 1.032544470937E+01 0.000000000000E+00 -4.399488199584E-01 -5.133835126561E-02 0.000000000000E+00 -1.513565266643E+03 -5.302438265058E+02 0.000000000000E+00 1.040500267845E+00 5.145468575260E+00 0.000000000000E+00 -1.267382965966E+03 4.334786410073E+02 0.000000000000E+00 4.774908133357E+01 -3.634957241766E+00 0.000000000000E+00 4.002204968915E+01 -1.855759696183E+00 0.000000000000E+00 3.074341427633E+03
 2.201676969757E-01 6.097846131975E-02 0.000000000000E+00 -2.005603836345E-01 1.568294183359E-01 0.000000000000E+00 -1.584108811294E-01 4.718926713306E-01 0.000000000000E+00 5.010990471804E-01 5.843804784403E-01 0.000000000000E+00 1.019136872989E+00 -1.859365035650E+00 0.000000000000E+00 -2.290375101316E-01 -9.655355207738E-02 0.000000000000E+00 -5.085632454010E-02 -5.881887500037E-01 0.000000000000E+00 -1.710832117400E-02 3.905903493673E-02 0.000000000000E+00 -6.182278629697E-01 1.340768752291E+00 0.000000000000E+00 -1.288386053580E+00 8.081954314592E-01 0.000000000000E+00 4.574057674984E-02 5.822376034551E-02 0.000000000000E+00 -5.433308237566E+02 -8.703417403450E+02 0.000000000000E+00 5.138482737413E-02 3.139550469462E-01 0.000000000000E+00 4.170882703672E+02 -7.232269127996E+02 0.000000000000E+00 -8.597831932813E+01 1.832575712830E+00 0.000000000000E+00 7.165915664521E+01 -2.341647158253E-01 0.000000000000E+00 9.823301905306E+01 2.542311020547E+03
 0.000000000000E+00 0.000000000000E+00 0.000000000000E+00 0.000000000000E+00 0.000000000000E+00 0.000000000000E+00 0.000000000000E+00 0.000000000000E+00 0.000000000000E+00 0.000000000000E+00 0.000000000000E+00 0.000000000000E+00 0.000000000000E+00 0.000000000000E+00 0.000000000000E+00 0.000000000000E+00 0.000000000000E+00 0.000000000000E+00 0.000000000000E+00 0.000000000000E+00 0.000000000000E+00 0.000000000000E+00 0.000000000000E+00 0.000000000000E+00 0.000000000000E+00 0.000000000000E+00 0.000000000000E+00 0.000000000000E+00 0.000000000000E+00 0.000000000000E+00 0.000000000000E+00 0.000000000000E+00 0.000000000000E+00 0.000000000000E+00 0.000000000000E+00 0.000000000000E+00 0.000000000000E+00 0.000000000000E+00 0.000000000000E+00 0.000000000000E+00 0.000000000000E+00 0.000000000000E+00 0.000000000000E+00 0.000000000000E+00 0.000000000000E+00 0.000000000000E+00 0.000000000000E+00 0.000000000000E+00 0.000000000000E+00 0.000000000000E+00 0.000000000000E+00
 -6.671269971383E-02 6.118077129920E-02 0.000000000000E+00 -1.229565111033E+03 4.494991091502E+02 0.000000000000E+00 7.138842112003E-01 9.479955334255E-01 0.000000000000E+00 6.198568731649E-01 8.113537846235E-01 0.000000000000E+00 1.781760817297E+00 -2.456284884947E+00 0.000000000000E+00 3.999188151653E+01 -4.399961240945E-01 0.000000000000E+00 -1.569719333672E-01 -7.104959838228E-01 0.000000000000E+00 -2.030583196694E+01 3.604378827363E+01 0.000000000000E+00 -2.102151990603E+00 9.289790861746E-01 0.000000000000E+00 -1.785331624641E+00 7.629660120650E-01 0.000000000000E+00 -9.363705852213E-03 4.176977669848E-02 0.000000000000E+00 1.136065926112E-01 1.931729404209E-01 0.000000000000E+00 4.416160235840E-01 5.110314187313E-01 0.000000000000E+00 -1.149704248983E+03 -3.956295269852E+02 0.000000000000E+00 -9.397472147312E-02 -2.093626030576E-01 0.000000000000E+00 3.694608067776E+01 -3.317911740999E-01 0.000000000000E+00 -1.797852450644E+01 -3.258452302314E+01 0.000000000000E+00 2.743838024078E+03
 6.150060801062E+00 3.041889797299E+00 0.000000000000E+00 4.501637275130E+02 -7.395040840158E+02 0.000000000000E+00 -7.106508475119E+00 1.294042708928E+01 0.000000000000E+00 1.519309516529E+01 1.838176815428E+01 0.000000000000E+00 3.195072409746E+01 -6.050347267010E+01 0.000000000000E+00 6.099143501323E+01 -4.815939120128E+00 0.000000000000E+00 -1.480358271543E-01 -2.065341263418E+01 0.000000000000E+00 -3.266518304269E+01 6.058281909649E+01 0.000000000000E+00 -1.083642289733E+01 4.648584145084E+01 0.000000000000E+00 -4.060984504786E+01 2.617924085451E+01 0.000000000000E+00 -1.076422875927E+00 -3.131820551780E-01 0.000000000000E+00 4.683468934422E+00 6.412011194499E+00 0.000000000000E+00 2.720130633892E+00 1.302342355660E+01 0.000000000000E+00 -3.838165959669E+02 -6.682469595771E+02 0.000000000000E+00 -3.016399319927E+00 -6.210959880213E+00 0.000000000000E+00 -6.298704667908E+01 -4.219185571202E+00 0.000000000000E+00 2.311417789337E+01 5.702361884941E+01 0.000000000000E+00 -6.177008959969E+00 2.783526621293E+03
 0.000000000000E+00 0.000000000000E+00 0.000000000000E+00 0.000000000000E+00 0.000000000000E+00 0.000000000000E+00 0.000000000000E+00 0.000000000000E+00 0.000000000000E+00 0.000000000000E+00 0.000000000000E+00 0.000000000000E+00 0.000000000000E+00 0.000000000000E+00 0.000000000000E+00 0.000000000000E+00 0.000000000000E+00 0.000000000000E+00 0.000000000000E+00 0.000000000000E+00 0.000000000000E+00 0.000000000000E+00 0.000000000000E+00 0.000000000000E+00 0.000000000000E+00 0.000000000000E+00 0.000000000000E+00 0.000000000000E+00 0.000000000000E+00 0.000000000000E+00 0.000000000000E+00 0.000000000000E+00 0.000000000000E+00 0.000000000000E+00 0.000000000000E+00 0.000000000000E+00 0.000000000000E+00 0.000000000000E+00 0.000000000000E+00 0.000000000000E+00 0.000000000000E+00 0.000000000000E+00 0.000000000000E+00 0.000000000000E+00 0.000000000000E+00 0.000000000000E+00 0.000000000000E+00 0.000000000000E+00 0.000000000000E+00 0.000000000000E+00 0.000000000000E+00 0.000000000000E+00 0.000000000000E+00 0.000000000000E+00